 argument  1 = /scratch2/scratchdirs/ebylaska/SNWC/b10cl10-312/pspw-unknown-72530-2017-11-6-20:28:6.nw
                                         
                                         
 
 
              Northwest Computational Chemistry Package (NWChem) 6.6
              ------------------------------------------------------
 
 
                    Environmental Molecular Sciences Laboratory
                       Pacific Northwest National Laboratory
                                Richland, WA 99352
 
                              Copyright (c) 1994-2015
                       Pacific Northwest National Laboratory
                            Battelle Memorial Institute
 
             NWChem is an open-source computational chemistry package
                        distributed under the terms of the
                      Educational Community License (ECL) 2.0
             A copy of the license is included with this distribution
                              in the LICENSE.TXT file
 
                                  ACKNOWLEDGMENT
                                  --------------

            This software and its documentation were developed at the
            EMSL at Pacific Northwest National Laboratory, a multiprogram
            national laboratory, operated for the U.S. Department of Energy
            by Battelle under Contract Number DE-AC05-76RL01830. Support
            for this work was provided by the Department of Energy Office
            of Biological and Environmental Research, Office of Basic
            Energy Sciences, and the Office of Advanced Scientific Computing.


           Job information
           ---------------

    hostname        = nid01430
    program         = /scratch2/scratchdirs/ebylaska/SNWC/b10cl10-312/nwchem
    date            = Mon Nov  6 12:30:04 2017

    compiled        = Wed_Nov_01_17:22:47_2017
    source          = /global/project/projectdirs/mp119/nwchem-releases/nwchemw
    nwchem branch   = Development
    nwchem revision = 29547
    ga revision     = 10752
    input           = /scratch2/scratchdirs/ebylaska/SNWC/b10cl10-312/pspw-unknown-72530-2017-11-6-20:28:6.nw
    prefix          = b10cl10-acetonitrile.
    data base       = /scratch2/scratchdirs/ebylaska/SNWC/b10cl10-312/b10cl10-acetonitrile.db
    status          = startup
    nproc           =      312
    time left       =     -1s



           Memory information
           ------------------

    heap     =  124518400 doubles =    950.0 Mbytes
    stack    =  117964797 doubles =    900.0 Mbytes
    global   =    1310720 doubles =     10.0 Mbytes (distinct from heap & stack)
    total    =  243793917 doubles =   1860.0 Mbytes
    verify   = yes
    hardfail = no 


           Directory information
           ---------------------
 
  0 permanent = /scratch2/scratchdirs/ebylaska/SNWC/b10cl10-312
  0 scratch   = .
 
 
 
 
                                NWChem Input Module
                                -------------------
 
 
                   B10Cl10^{2-} + 56 H3CCN 350K aimd simulation
                   --------------------------------------------

 Scaling coordinates for geometry "geometry" by  1.889725989
 (inverse scale =  0.529177249)

 
 
                             Geometry "geometry" -> ""
                             -------------------------
 
 Output coordinates in angstroms (scale by  1.889725989 to convert to a.u.)
 
  No.       Tag          Charge          X              Y              Z
 ---- ---------------- ---------- -------------- -------------- --------------
    1 B                    5.0000    -0.06524065     0.17696614    -1.82496290
    2 B                    5.0000    -0.98574065     1.09646614    -0.74996290
    3 B                    5.0000     0.85465935    -0.74303386    -0.74996290
    4 B                    5.0000    -0.98574065    -0.74303386    -0.74996290
    5 B                    5.0000     0.85465935     1.09646614    -0.74996290
    6 B                    5.0000    -1.36674065     0.17696614     0.78423710
    7 B                    5.0000    -0.06524065    -1.12453386     0.78423710
    8 B                    5.0000    -0.06524065     1.47846614     0.78423710
    9 B                    5.0000     1.23525935     0.17696614     0.78423710
   10 B                    5.0000    -0.06524065     0.17696614     1.86003710
   11 Cl                  17.0000    -0.06524065     0.17696614     3.65103710
   12 Cl                  17.0000     2.92925935     0.17696614     1.41003710
   13 Cl                  17.0000    -0.06524065     0.17696614    -3.61596290
   14 Cl                  17.0000     2.05225935    -1.94053386    -1.37596290
   15 Cl                  17.0000     2.05225935     2.29446614    -1.37596290
   16 Cl                  17.0000    -2.18274065     2.29446614    -1.37596290
   17 Cl                  17.0000    -2.18274065    -1.94053386    -1.37596290
   18 Cl                  17.0000    -3.05974065     0.17696614     1.41003710
   19 Cl                  17.0000    -0.06524065    -2.81753386     1.41003710
   20 Cl                  17.0000    -0.06524065     3.17146614     1.41003710
   21 C                    6.0000     0.68655935     2.18546614    -7.42296290
   22 C                    6.0000     1.10515935     0.92686614    -7.96096290
   23 N                    7.0000     1.43825935    -0.08326386    -8.39296290
   24 H                    1.0000     0.24720935     2.78346614    -8.20096290
   25 H                    1.0000     1.52825935     2.71746614    -7.00496290
   26 H                    1.0000    -0.04934065     2.03246614    -6.64896290
   27 C                    6.0000    -3.43974065     6.18746614     1.13483710
   28 C                    6.0000    -3.91774065     4.85746614     1.26483710
   29 N                    7.0000    -4.29974065     3.79246614     1.36603710
   30 H                    1.0000    -3.55574065     6.72046614     2.06803710
   31 H                    1.0000    -3.99174065     6.70546614     0.36535710
   32 H                    1.0000    -2.39474065     6.17746614     0.86593710
   33 C                    6.0000     2.11225935    -5.46853386     4.57103710
   34 C                    6.0000     3.56625935    -5.52853386     4.54503710
   35 N                    7.0000     4.72125935    -5.57453386     4.52403710
   36 H                    1.0000     1.74525935    -4.89053386     3.73603710
   37 H                    1.0000     1.77325935    -5.00553386     5.48603710
   38 H                    1.0000     1.69425935    -6.46253386     4.51203710
   39 C                    6.0000     5.80125935     3.58846614    -4.04096290
   40 C                    6.0000     6.88825935     3.06546614    -4.81096290
   41 N                    7.0000     7.75525935     2.64746614    -5.43396290
   42 H                    1.0000     6.14525935     4.40846614    -3.42896290
   43 H                    1.0000     5.39525935     2.82246614    -3.39596290
   44 H                    1.0000     5.01825935     3.94646614    -4.69196290
   45 C                    6.0000    -4.58474065     6.71346614    -8.79696290
   46 C                    6.0000    -3.52274065     7.22946614    -7.98096290
   47 N                    7.0000    -2.67074065     7.63646614    -7.33096290
   48 H                    1.0000    -5.50874065     7.22646614    -8.57896290
   49 H                    1.0000    -4.72374065     5.66246614    -8.60396290
   50 H                    1.0000    -4.35274065     6.84646614    -9.84096290
   51 C                    6.0000    -5.30474065    -3.74553386     6.26703710
   52 C                    6.0000    -5.13374065    -4.13453386     7.60603710
   53 N                    7.0000    -4.99274065    -4.45053386     8.68803710
   54 H                    1.0000    -6.17474065    -3.11653386     6.17003710
   55 H                    1.0000    -5.42974065    -4.61653386     5.64403710
   56 H                    1.0000    -4.43674065    -3.19953386     5.92703710
   57 C                    6.0000     6.33425935     8.61846614     6.47503710
   58 C                    6.0000     7.27825935     7.54046614     6.78603710
   59 N                    7.0000     8.02625935     6.69546614     7.03603710
   60 H                    1.0000     6.40025935     8.88246614     5.43103710
   61 H                    1.0000     6.55825935     9.49246614     7.06703710
   62 H                    1.0000     5.32325935     8.30546614     6.68903710
   63 C                    6.0000    -7.39574065    -2.18553386    -3.47696290
   64 C                    6.0000    -8.30574065    -2.46653386    -2.42196290
   65 N                    7.0000    -9.02474065    -2.68853386    -1.56996290
   66 H                    1.0000    -6.89974065    -1.24853386    -3.30996290
   67 H                    1.0000    -7.92474065    -2.14453386    -4.41696290
   68 H                    1.0000    -6.64374065    -2.95953386    -3.53196290
   69 C                    6.0000    -1.84674065     7.30946614     5.95203710
   70 C                    6.0000    -1.38274065     6.18746614     5.18603710
   71 N                    7.0000    -1.01574065     5.29046614     4.57003710
   72 H                    1.0000    -1.59274065     8.23146614     5.45103710
   73 H                    1.0000    -1.39574065     7.30946614     6.93303710
   74 H                    1.0000    -2.91974065     7.26246614     6.06203710
   75 C                    6.0000    -4.38874065    -4.34953386    -4.96196290
   76 C                    6.0000    -3.22674065    -5.20453386    -5.15996290
   77 N                    7.0000    -2.30974065    -5.88153386    -5.32796290
   78 H                    1.0000    -4.69074065    -3.91853386    -5.90796290
   79 H                    1.0000    -4.15574065    -3.54653386    -4.27796290
   80 H                    1.0000    -5.21374065    -4.91853386    -4.55996290
   81 C                    6.0000     3.11925935     6.22946614    -1.79996290
   82 C                    6.0000     4.43025935     5.64546614    -1.61396290
   83 N                    7.0000     5.47225935     5.18046614    -1.45996290
   84 H                    1.0000     2.40225935     5.74846614    -1.15196290
   85 H                    1.0000     2.79625935     6.11046614    -2.82396290
   86 H                    1.0000     3.14425935     7.28346614    -1.56596290
   87 C                    6.0000    -8.81974065    -7.45653386     3.52003710
   88 C                    6.0000    -8.15874065    -6.17853386     3.40803710
   89 N                    7.0000    -7.63474065    -5.15953386     3.32403710
   90 H                    1.0000    -9.06574065    -7.65853386     4.54903710
   91 H                    1.0000    -8.17374065    -8.24353386     3.15803710
   92 H                    1.0000    -9.72874065    -7.45753386     2.93603710
   93 C                    6.0000     2.25625935    -6.86953386     0.33633710
   94 C                    6.0000     3.46425935    -7.70053386     0.44213710
   95 N                    7.0000     4.42125935    -8.35153386     0.53403710
   96 H                    1.0000     1.90025935    -6.84553386    -0.68456290
   97 H                    1.0000     2.47425935    -5.85853386     0.64743710
   98 H                    1.0000     1.47125935    -7.26353386     0.96743710
   99 C                    6.0000    -9.31974065     6.53046614    -6.16596290
  100 C                    6.0000    -8.11474065     5.83546614    -6.54196290
  101 N                    7.0000    -7.15274065     5.28346614    -6.83696290
  102 H                    1.0000    -9.07274065     7.42646614    -5.61596290
  103 H                    1.0000    -9.93774065     5.90046614    -5.54296290
  104 H                    1.0000    -9.87774065     6.80946614    -7.04696290
  105 C                    6.0000     2.97925935     6.45346614    -6.37396290
  106 C                    6.0000     3.91225935     6.94746614    -5.40696290
  107 N                    7.0000     4.66025935     7.34646614    -4.63696290
  108 H                    1.0000     2.41425935     5.63246614    -5.95996290
  109 H                    1.0000     3.49725935     6.11046614    -7.25396290
  110 H                    1.0000     2.29225935     7.23746614    -6.65796290
  111 C                    6.0000    -4.57874065    -7.24953386    -0.48996290
  112 C                    6.0000    -5.09774065    -7.49153386     0.81563710
  113 N                    7.0000    -5.50674065    -7.69453386     1.86203710
  114 H                    1.0000    -5.38174065    -7.11453386    -1.19896290
  115 H                    1.0000    -3.98074065    -8.08153386    -0.79596290
  116 H                    1.0000    -3.96274065    -6.36253386    -0.48546290
  117 C                    6.0000     5.51525935    -0.66853386     4.43803710
  118 C                    6.0000     4.52425935    -1.35753386     5.22903710
  119 N                    7.0000     3.74025935    -1.90853386     5.86703710
  120 H                    1.0000     5.24925935     0.37266614     4.33003710
  121 H                    1.0000     5.58725935    -1.11453386     3.45503710
  122 H                    1.0000     6.48125935    -0.73043386     4.91903710
  123 C                    6.0000    -0.49094065    -5.08753386    -2.84696290
  124 C                    6.0000    -1.07374065    -5.59153386    -1.64296290
  125 N                    7.0000    -1.53674065    -5.99653386    -0.67766290
  126 H                    1.0000     0.31865935    -4.41253386    -2.61696290
  127 H                    1.0000    -1.23074065    -4.55653386    -3.42696290
  128 H                    1.0000    -0.10554065    -5.90153386    -3.44196290
  129 C                    6.0000    -5.11074065     1.34746614    -5.26496290
  130 C                    6.0000    -4.73274065    -0.01445386    -4.95496290
  131 N                    7.0000    -4.44074065    -1.10053386    -4.70996290
  132 H                    1.0000    -4.90574065     1.56546614    -6.30496290
  133 H                    1.0000    -4.55274065     2.03946614    -4.65296290
  134 H                    1.0000    -6.16774065     1.48546614    -5.08296290
  135 C                    6.0000    -1.15174065    -8.50553386    -4.10096290
  136 C                    6.0000     0.15833935    -8.11053386    -4.35296290
  137 N                    7.0000     1.22125935    -7.78353386    -4.55696290
  138 H                    1.0000    -1.25674065    -8.79653386    -3.06896290
  139 H                    1.0000    -1.40374065    -9.33753386    -4.73296290
  140 H                    1.0000    -1.82674065    -7.69653386    -4.31096290
  141 C                    6.0000    -8.00974065     0.32046614     0.53063710
  142 C                    6.0000    -7.31474065    -0.65703386     1.39203710
  143 N                    7.0000    -6.77174065    -1.42953386     2.07103710
  144 H                    1.0000    -8.46574065    -0.18063386    -0.31126290
  145 H                    1.0000    -7.31774065     1.06046614     0.15783710
  146 H                    1.0000    -8.78574065     0.82566614     1.08753710
  147 C                    6.0000     5.49225935     4.05246614    -7.44596290
  148 C                    6.0000     5.15425935     5.06646614    -8.43596290
  149 N                    7.0000     4.88125935     5.86546614    -9.22096290
  150 H                    1.0000     5.20325935     4.38546614    -6.45896290
  151 H                    1.0000     6.55825935     3.86346614    -7.45096290
  152 H                    1.0000     4.97325935     3.13146614    -7.66696290
  153 C                    6.0000    -4.41074065    -2.91953386     3.61803710
  154 C                    6.0000    -3.65974065    -3.82553386     2.79203710
  155 N                    7.0000    -3.05474065    -4.54153386     2.13003710
  156 H                    1.0000    -4.08374065    -1.90353386     3.46103710
  157 H                    1.0000    -4.27174065    -3.17253386     4.65903710
  158 H                    1.0000    -5.45974065    -2.99153386     3.37703710
  159 C                    6.0000    -5.42274065    -0.32753386     6.04303710
  160 C                    6.0000    -4.41174065     0.60256614     5.65503710
  161 N                    7.0000    -3.60074065     1.34946614     5.34203710
  162 H                    1.0000    -6.35974065     0.18926614     6.19603710
  163 H                    1.0000    -5.14074065    -0.81953386     6.96403710
  164 H                    1.0000    -5.55574065    -1.07253386     5.27203710
  165 C                    6.0000     7.03625935     8.97246614    -3.28196290
  166 C                    6.0000     8.37225935     8.38446614    -3.46596290
  167 N                    7.0000     9.42725935     7.91446614    -3.60896290
  168 H                    1.0000     7.03625935    10.01646614    -3.57196290
  169 H                    1.0000     6.73325935     8.90346614    -2.24796290
  170 H                    1.0000     6.31425935     8.45046614    -3.88696290
  171 C                    6.0000     6.95725935    -5.67753386     0.54503710
  172 C                    6.0000     6.18025935    -5.23353386    -0.52746290
  173 N                    7.0000     5.54225935    -4.87053386    -1.39196290
  174 H                    1.0000     6.79825935    -5.05253386     1.40303710
  175 H                    1.0000     7.99725935    -5.64453386     0.27689510
  176 H                    1.0000     6.69725935    -6.69253386     0.79923710
  177 C                    6.0000     1.83125935    -9.12653386     2.72403710
  178 C                    6.0000     0.61395935    -8.39553386     2.78303710
  179 N                    7.0000    -0.36294065    -7.80953386     2.83103710
  180 H                    1.0000     1.80625935    -9.93853386     3.42903710
  181 H                    1.0000     2.66225935    -8.48353386     2.96303710
  182 H                    1.0000     1.97125935    -9.52953386     1.73303710
  183 C                    6.0000    -0.52994065    -6.61153386     6.18903710
  184 C                    6.0000    -1.11474065    -5.32553386     5.81403710
  185 N                    7.0000    -1.57774065    -4.30753386     5.51403710
  186 H                    1.0000    -1.02274065    -7.00253386     7.06903710
  187 H                    1.0000     0.52195935    -6.49853386     6.40503710
  188 H                    1.0000    -0.64534065    -7.32253386     5.38403710
  189 C                    6.0000    -6.58074065    -4.47953386     0.59773710
  190 C                    6.0000    -5.90174065    -4.11553386    -0.59396290
  191 N                    7.0000    -5.35674065    -3.82553386    -1.55496290
  192 H                    1.0000    -6.45474065    -3.71653386     1.34903710
  193 H                    1.0000    -6.19074065    -5.41053386     0.97873710
  194 H                    1.0000    -7.63374065    -4.60053386     0.40273710
  195 C                    6.0000     7.61625935     7.45546614     0.63683710
  196 C                    6.0000     8.46525935     8.55346614     0.17244710
  197 N                    7.0000     9.12925935     9.42346614    -0.20396290
  198 H                    1.0000     7.88525935     6.53746614     0.13553710
  199 H                    1.0000     6.57925935     7.66946614     0.42733710
  200 H                    1.0000     7.73225935     7.31246614     1.70103710
  201 C                    6.0000    -9.00174065     0.05290614     4.47903710
  202 C                    6.0000    -7.95974065     1.04546614     4.34003710
  203 N                    7.0000    -7.12974065     1.83446614     4.22803710
  204 H                    1.0000    -8.58274065    -0.89453386     4.78603710
  205 H                    1.0000    -9.51174065    -0.08345386     3.53503710
  206 H                    1.0000    -9.72374065     0.37016614     5.21803710
  207 C                    6.0000     7.08825935     4.25246614     5.80003710
  208 C                    6.0000     6.39025935     3.11146614     6.40403710
  209 N                    7.0000     5.83025935     2.21046614     6.88903710
  210 H                    1.0000     7.24625935     4.09646614     4.74303710
  211 H                    1.0000     8.04825935     4.39846614     6.27503710
  212 H                    1.0000     6.50425935     5.15346614     5.93103710
  213 C                    6.0000    -5.82574065    -7.33653386    -6.92896290
  214 C                    6.0000    -6.48374065    -7.70753386    -8.16296290
  215 N                    7.0000    -7.01074065    -8.00053386    -9.14696290
  216 H                    1.0000    -4.80874065    -7.03253386    -7.13096290
  217 H                    1.0000    -5.80874065    -8.17153386    -6.24496290
  218 H                    1.0000    -6.34574065    -6.51453386    -6.46096290
  219 C                    6.0000     7.81825935     0.89796614     8.75103710
  220 C                    6.0000     8.82225935     1.87746614     8.46603710
  221 N                    7.0000     9.62625935     2.65446614     8.23203710
  222 H                    1.0000     6.97125935     1.36146614     9.23203710
  223 H                    1.0000     8.21225935     0.13496614     9.40103710
  224 H                    1.0000     7.48625935     0.43476614     7.83403710
  225 C                    6.0000    -5.15374065     1.39346614    -1.84496290
  226 C                    6.0000    -6.55574065     1.65846614    -2.21996290
  227 N                    7.0000    -7.66074065     1.86446614    -2.51496290
  228 H                    1.0000    -4.86174065     2.01646614    -1.01096290
  229 H                    1.0000    -4.49674065     1.60246614    -2.67496290
  230 H                    1.0000    -5.02874065     0.35866614    -1.56096290
  231 C                    6.0000     8.22925935    -5.49553386     6.44603710
  232 C                    6.0000     8.07625935    -4.08353386     6.32903710
  233 N                    7.0000     7.95425935    -2.94953386     6.23903710
  234 H                    1.0000     9.04925935    -5.72753386     7.10603710
  235 H                    1.0000     8.42625935    -5.92853386     5.47903710
  236 H                    1.0000     7.32825935    -5.93453386     6.84503710
  237 C                    6.0000    -3.55974065    -1.24653386    -8.32396290
  238 C                    6.0000    -3.02174065    -0.04490386    -7.73796290
  239 N                    7.0000    -2.58474065     0.91126614    -7.26996290
  240 H                    1.0000    -4.38574065    -1.00853386    -8.97696290
  241 H                    1.0000    -3.91074065    -1.91353386    -7.55296290
  242 H                    1.0000    -2.79874065    -1.74953386    -8.90196290
  243 C                    6.0000    -5.74174065     4.61646614     6.47303710
  244 C                    6.0000    -6.02274065     5.57046614     5.46803710
  245 N                    7.0000    -6.24974065     6.34246614     4.66403710
  246 H                    1.0000    -5.82974065     5.07146614     7.44703710
  247 H                    1.0000    -4.73774065     4.24346614     6.35203710
  248 H                    1.0000    -6.43674065     3.79446614     6.40503710
  249 C                    6.0000     5.31425935    -4.80653386     7.83303710
  250 C                    6.0000     4.66825935    -5.35953386     8.96803710
  251 N                    7.0000     4.14825935    -5.80553386     9.88103710
  252 H                    1.0000     4.77225935    -3.94153386     7.48303710
  253 H                    1.0000     5.35625935    -5.53553386     7.03803710
  254 H                    1.0000     6.31925935    -4.50753386     8.08603710
  255 C                    6.0000     9.07625935    -4.36753386    -6.56996290
  256 C                    6.0000     8.49225935    -5.69853386    -6.66396290
  257 N                    7.0000     8.02725935    -6.75153386    -6.73596290
  258 H                    1.0000     9.87325935    -4.25653386    -7.29096290
  259 H                    1.0000     9.47625935    -4.20353386    -5.57996290
  260 H                    1.0000     8.32325935    -3.61853386    -6.76696290
  261 C                    6.0000    -7.51274065     5.04446614    -1.02096290
  262 C                    6.0000    -7.53174065     5.14046614     0.41123710
  263 N                    7.0000    -7.53974065     5.22046614     1.55503710
  264 H                    1.0000    -6.60974065     4.55046614    -1.34496290
  265 H                    1.0000    -7.55274065     6.02746614    -1.45896290
  266 H                    1.0000    -8.36174065     4.47546614    -1.36996290
  267 C                    6.0000    -3.33374065     7.88746614    -1.81896290
  268 C                    6.0000    -2.03974065     7.35446614    -1.64096290
  269 N                    7.0000    -0.99574065     6.92446614    -1.50596290
  270 H                    1.0000    -4.00574065     7.12946614    -2.16996290
  271 H                    1.0000    -3.30874065     8.68546614    -2.54496290
  272 H                    1.0000    -3.69574065     8.27846614    -0.88496290
  273 C                    6.0000     2.49825935     3.01346614     5.26803710
  274 C                    6.0000     2.55425935     4.42146614     4.91903710
  275 N                    7.0000     2.60225935     5.53946614     4.63703710
  276 H                    1.0000     2.77825935     2.87646614     6.30003710
  277 H                    1.0000     3.17725935     2.44646614     4.64903710
  278 H                    1.0000     1.49725935     2.63246614     5.12803710
  279 C                    6.0000     3.39425935    -3.67953386    -4.26696290
  280 C                    6.0000     4.64425935    -3.19953386    -4.77496290
  281 N                    7.0000     5.65025935    -2.81853386    -5.17596290
  282 H                    1.0000     3.49925935    -3.96553386    -3.23196290
  283 H                    1.0000     3.07625935    -4.54553386    -4.83096290
  284 H                    1.0000     2.63925935    -2.91253386    -4.34596290
  285 C                    6.0000     1.62925935    -3.59853386    -8.08196290
  286 C                    6.0000     0.92115935    -3.59153386    -6.86396290
  287 N                    7.0000     0.35245935    -3.58253386    -5.88196290
  288 H                    1.0000     0.98245935    -3.91453386    -8.88496290
  289 H                    1.0000     2.46725935    -4.27453386    -8.01796290
  290 H                    1.0000     1.99525935    -2.60653386    -8.29796290
  291 C                    6.0000    -5.50874065    -7.62653386     4.85203710
  292 C                    6.0000    -4.49074065    -7.41853386     5.83003710
  293 N                    7.0000    -3.67374065    -7.25853386     6.61603710
  294 H                    1.0000    -5.27274065    -8.49253386     4.24903710
  295 H                    1.0000    -5.58574065    -6.76653386     4.20403710
  296 H                    1.0000    -6.46074065    -7.78753386     5.33603710
  297 C                    6.0000     3.63725935    -3.03753386     1.81903710
  298 C                    6.0000     5.03425935    -2.75453386     1.58203710
  299 N                    7.0000     6.14825935    -2.52753386     1.39903710
  300 H                    1.0000     3.02125935    -2.31653386     1.30403710
  301 H                    1.0000     3.42125935    -2.98653386     2.87603710
  302 H                    1.0000     3.38825935    -4.02453386     1.45903710
  303 C                    6.0000     5.66925935     0.52606614    -6.60896290
  304 C                    6.0000     4.40725935     0.57496614    -5.95496290
  305 N                    7.0000     3.39325935     0.61536614    -5.43496290
  306 H                    1.0000     5.97825935     1.51646614    -6.91596290
  307 H                    1.0000     5.62025935    -0.11603386    -7.47196290
  308 H                    1.0000     6.41025935     0.13436614    -5.93396290
  309 C                    6.0000    -2.57674065     4.45346614     7.96403710
  310 C                    6.0000    -1.13574065     4.60046614     8.14603710
  311 N                    7.0000     0.00695935     4.72746614     8.28403710
  312 H                    1.0000    -2.90974065     3.49746614     8.34003710
  313 H                    1.0000    -2.82674065     4.51846614     6.91503710
  314 H                    1.0000    -3.10074065     5.23346614     8.49203710
  315 C                    6.0000     2.85625935    -8.86053386     8.46703710
  316 C                    6.0000     1.61525935    -8.30553386     8.75003710
  317 N                    7.0000     0.60915935    -7.84753386     8.97703710
  318 H                    1.0000     3.24425935    -8.44253386     7.55203710
  319 H                    1.0000     2.76825935    -9.92853386     8.35403710
  320 H                    1.0000     3.54625935    -8.64553386     9.26703710
  321 C                    6.0000    -4.10374065     6.88046614    -4.41196290
  322 C                    6.0000    -4.47474065     5.66646614    -3.74396290
  323 N                    7.0000    -4.77974065     4.70146614    -3.20596290
  324 H                    1.0000    -4.84174065     7.64646614    -4.23096290
  325 H                    1.0000    -4.03474065     6.70846614    -5.47496290
  326 H                    1.0000    -3.14874065     7.23046614    -4.05196290
  327 C                    6.0000     4.58925935     8.64246614     3.93403710
  328 C                    6.0000     5.60625935     7.60046614     3.86803710
  329 N                    7.0000     6.40825935     6.77546614     3.82203710
  330 H                    1.0000     3.94425935     8.47646614     4.78203710
  331 H                    1.0000     3.98425935     8.63846614     3.04003710
  332 H                    1.0000     5.05325935     9.60646614     4.03603710
  333 C                    6.0000    -8.28174065    -0.84713386    -6.14296290
  334 C                    6.0000    -7.38174065    -0.79653386    -7.30796290
  335 N                    7.0000    -6.67174065    -0.75553386    -8.22496290
  336 H                    1.0000    -9.12974065    -1.48153386    -6.34696290
  337 H                    1.0000    -8.63974065     0.14256614    -5.89896290
  338 H                    1.0000    -7.75574065    -1.24153386    -5.28596290
  339 C                    6.0000     6.62725935     0.23326614    -3.61396290
  340 C                    6.0000     6.13225935     0.47376614    -2.26796290
  341 N                    7.0000     5.73225935     0.66096614    -1.19696290
  342 H                    1.0000     6.69325935    -0.82733386    -3.80196290
  343 H                    1.0000     7.60625935     0.67246614    -3.74296290
  344 H                    1.0000     5.95325935     0.67016614    -4.33396290
  345 C                    6.0000    -1.33374065     4.54146614    -6.07496290
  346 C                    6.0000    -0.28844065     5.18346614    -5.33796290
  347 N                    7.0000     0.52815935     5.70146614    -4.73996290
  348 H                    1.0000    -2.11574065     4.22346614    -5.39796290
  349 H                    1.0000    -0.95474065     3.68146614    -6.59896290
  350 H                    1.0000    -1.75374065     5.23246614    -6.79196290
  351 C                    6.0000     4.11525935     3.52846614     1.17733710
  352 C                    6.0000     4.87925935     2.88846614     2.20303710
  353 N                    7.0000     5.49225935     2.37546614     3.02603710
  354 H                    1.0000     4.76125935     4.13546614     0.56373710
  355 H                    1.0000     3.35525935     4.15846614     1.61303710
  356 H                    1.0000     3.64425935     2.78646614     0.55253710
 
 
                                    Velocities
                                    ----------
  No.       Tag          Charge          X              Y              Z
 ---- ---------------- ---------- -------------- -------------- --------------
    1 B                    5.0000     0.00000002     0.00000001    -0.00000001
    2 B                    5.0000     0.00000002     0.00000001    -0.00000001
    3 B                    5.0000     0.00000002     0.00000001    -0.00000001
    4 B                    5.0000     0.00000002     0.00000001    -0.00000001
    5 B                    5.0000     0.00000002     0.00000001    -0.00000001
    6 B                    5.0000     0.00000002     0.00000001    -0.00000001
    7 B                    5.0000     0.00000002     0.00000001    -0.00000001
    8 B                    5.0000     0.00000002     0.00000001    -0.00000001
    9 B                    5.0000     0.00000002     0.00000001    -0.00000001
   10 B                    5.0000     0.00000002     0.00000001    -0.00000001
   11 Cl                  17.0000     0.00000002     0.00000001    -0.00000001
   12 Cl                  17.0000     0.00000002     0.00000001    -0.00000001
   13 Cl                  17.0000     0.00000002     0.00000001    -0.00000001
   14 Cl                  17.0000     0.00000002     0.00000001    -0.00000001
   15 Cl                  17.0000     0.00000002     0.00000001    -0.00000001
   16 Cl                  17.0000     0.00000002     0.00000001    -0.00000001
   17 Cl                  17.0000     0.00000002     0.00000001    -0.00000001
   18 Cl                  17.0000     0.00000002     0.00000001    -0.00000001
   19 Cl                  17.0000     0.00000002     0.00000001    -0.00000001
   20 Cl                  17.0000     0.00000002     0.00000001    -0.00000001
   21 C                    6.0000     0.00049019    -0.00018676     0.00029329
   22 C                    6.0000     0.00033108    -0.00013880     0.00007531
   23 N                    7.0000     0.00023546    -0.00004806    -0.00014439
   24 H                    1.0000     0.00066726     0.00000549     0.00033864
   25 H                    1.0000     0.00054991    -0.00040572     0.00040554
   26 H                    1.0000     0.00040194    -0.00015598     0.00021089
   27 C                    6.0000     0.00010473     0.00006174    -0.00058298
   28 C                    6.0000    -0.00004258    -0.00025795    -0.00016119
   29 N                    7.0000     0.00017688    -0.00017068     0.00016025
   30 H                    1.0000     0.00029763     0.00027118    -0.00069334
   31 H                    1.0000     0.00001801    -0.00010068    -0.00063533
   32 H                    1.0000     0.00010970    -0.00000122    -0.00075060
   33 C                    6.0000    -0.00031464     0.00021864     0.00044333
   34 C                    6.0000    -0.00018992    -0.00008194     0.00016985
   35 N                    7.0000    -0.00016966    -0.00028289    -0.00003950
   36 H                    1.0000    -0.00036018     0.00063495     0.00076572
   37 H                    1.0000    -0.00001229    -0.00008269     0.00066670
   38 H                    1.0000    -0.00057032     0.00033014     0.00015050
   39 C                    6.0000     0.00040100    -0.00021732     0.00006246
   40 C                    6.0000     0.00011994    -0.00013296    -0.00007221
   41 N                    7.0000    -0.00006089    -0.00011155    -0.00021826
   42 H                    1.0000     0.00049284    -0.00003384    -0.00025700
   43 H                    1.0000     0.00074134    -0.00012912     0.00036056
   44 H                    1.0000     0.00014772    -0.00046846     0.00022431
   45 C                    6.0000    -0.00009857     0.00012776     0.00019974
   46 C                    6.0000     0.00022998     0.00011157    -0.00000300
   47 N                    7.0000     0.00039080     0.00002494    -0.00019691
   48 H                    1.0000    -0.00025360    -0.00036528     0.00099532
   49 H                    1.0000     0.00030500    -0.00005333    -0.00038607
   50 H                    1.0000    -0.00096678     0.00085548     0.00015955
   51 C                    6.0000     0.00017355    -0.00011516    -0.00034601
   52 C                    6.0000     0.00027628    -0.00027325    -0.00021770
   53 N                    7.0000     0.00035432    -0.00041309    -0.00023111
   54 H                    1.0000    -0.00041744    -0.00097793    -0.00039741
   55 H                    1.0000     0.00105617    -0.00007990    -0.00057315
   56 H                    1.0000    -0.00034317     0.00088931    -0.00015120
   57 C                    6.0000     0.00017544     0.00027155    -0.00032352
   58 C                    6.0000     0.00003239     0.00008634    -0.00011665
   59 N                    7.0000    -0.00007697     0.00000709     0.00004280
   60 H                    1.0000     0.00019880     0.00007268    -0.00038588
   61 H                    1.0000     0.00037870     0.00033977    -0.00052440
   62 H                    1.0000     0.00012654     0.00058449    -0.00026796
   63 C                    6.0000     0.00034847    -0.00000176     0.00010741
   64 C                    6.0000    -0.00001911    -0.00009243     0.00025001
   65 N                    7.0000    -0.00010741     0.00023376     0.00033845
   66 H                    1.0000     0.00104672    -0.00041782     0.00027344
   67 H                    1.0000     0.00044919     0.00081674     0.00000584
   68 H                    1.0000    -0.00031294    -0.00062644    -0.00019464
   69 C                    6.0000    -0.00046260     0.00021864     0.00002160
   70 C                    6.0000    -0.00026116     0.00018277     0.00002610
   71 N                    7.0000    -0.00015749     0.00020315    -0.00001444
   72 H                    1.0000    -0.00108073     0.00028516    -0.00014300
   73 H                    1.0000    -0.00016958     0.00055123    -0.00012665
   74 H                    1.0000    -0.00047697    -0.00015929     0.00038494
   75 C                    6.0000     0.00011140    -0.00025266    -0.00006975
   76 C                    6.0000    -0.00008736    -0.00044824    -0.00003594
   77 N                    7.0000    -0.00022053    -0.00054953    -0.00000969
   78 H                    1.0000     0.00076156     0.00050607     0.00013610
   79 H                    1.0000    -0.00000474    -0.00083205     0.00069901
   80 H                    1.0000    -0.00040062    -0.00022866    -0.00088005
   81 C                    6.0000    -0.00016890     0.00005000     0.00024434
   82 C                    6.0000    -0.00001958    -0.00011474    -0.00010709
   83 N                    7.0000     0.00001595    -0.00019521    -0.00034147
   84 H                    1.0000    -0.00008795    -0.00016837     0.00016866
   85 H                    1.0000    -0.00034317     0.00044446     0.00025606
   86 H                    1.0000    -0.00011448    -0.00004318     0.00063570
   87 C                    6.0000     0.00049379    -0.00026588     0.00011879
   88 C                    6.0000    -0.00029669    -0.00002810    -0.00006109
   89 N                    7.0000    -0.00087664     0.00015843    -0.00019596
   90 H                    1.0000     0.00076572    -0.00032617     0.00013196
   91 H                    1.0000     0.00084357     0.00012544     0.00001916
   92 H                    1.0000     0.00043464    -0.00082127     0.00035565
   93 C                    6.0000    -0.00017990    -0.00052780    -0.00089214
   94 C                    6.0000     0.00004700    -0.00041971    -0.00082487
   95 N                    7.0000     0.00007393    -0.00034299    -0.00066027
   96 H                    1.0000    -0.00092408    -0.00158472    -0.00068314
   97 H                    1.0000    -0.00003727    -0.00021259    -0.00210704
   98 H                    1.0000     0.00026040     0.00006966     0.00004405
   99 C                    6.0000    -0.00009866    -0.00005195    -0.00004978
  100 C                    6.0000     0.00010231    -0.00008969     0.00020787
  101 N                    7.0000     0.00016323    -0.00009774     0.00038532
  102 H                    1.0000    -0.00033618    -0.00043086     0.00065611
  103 H                    1.0000    -0.00059205    -0.00035187    -0.00083677
  104 H                    1.0000     0.00045939     0.00056389    -0.00023225
  105 C                    6.0000    -0.00011034    -0.00004059     0.00038418
  106 C                    6.0000     0.00009350     0.00001555     0.00021505
  107 N                    7.0000     0.00020674     0.00002009     0.00007151
  108 H                    1.0000     0.00006380    -0.00013427     0.00052667
  109 H                    1.0000    -0.00031596     0.00002816     0.00021089
  110 H                    1.0000    -0.00028951    -0.00011221     0.00060093
  111 C                    6.0000     0.00038154    -0.00060055     0.00015583
  112 C                    6.0000     0.00025417    -0.00004125     0.00011308
  113 N                    7.0000     0.00017172     0.00035791     0.00001771
  114 H                    1.0000     0.00043086    -0.00130221    -0.00025152
  115 H                    1.0000     0.00073019    -0.00053347     0.00084849
  116 H                    1.0000     0.00016374    -0.00048037    -0.00023376
  117 C                    6.0000     0.00004273     0.00011990     0.00019407
  118 C                    6.0000     0.00005512     0.00028592     0.00016263
  119 N                    7.0000     0.00002413     0.00045486     0.00020825
  120 H                    1.0000    -0.00049738    -0.00014729    -0.00093579
  121 H                    1.0000     0.00087211    -0.00072093     0.00058468
  122 H                    1.0000    -0.00020031     0.00121264     0.00085359
  123 C                    6.0000    -0.00001847     0.00014740     0.00019521
  124 C                    6.0000     0.00006230    -0.00006106     0.00009464
  125 N                    7.0000     0.00013600    -0.00020579     0.00002343
  126 H                    1.0000    -0.00017699     0.00025833     0.00031804
  127 H                    1.0000    -0.00009982     0.00005131     0.00019105
  128 H                    1.0000     0.00019011     0.00026551     0.00017053
  129 C                    6.0000     0.00047999    -0.00014341     0.00011824
  130 C                    6.0000     0.00016817    -0.00044314    -0.00023546
  131 N                    7.0000     0.00000716    -0.00059923    -0.00057315
  132 H                    1.0000     0.00109604     0.00037058     0.00032749
  133 H                    1.0000    -0.00004690    -0.00032711     0.00100817
  134 H                    1.0000     0.00037398    -0.00037606    -0.00051627
  135 C                    6.0000     0.00003874     0.00043105    -0.00020504
  136 C                    6.0000     0.00011886     0.00006773    -0.00034280
  137 N                    7.0000     0.00020768    -0.00003245    -0.00020315
  138 H                    1.0000    -0.00051627     0.00128029    -0.00001442
  139 H                    1.0000     0.00006465    -0.00022715     0.00071205
  140 H                    1.0000     0.00012272     0.00017909    -0.00121207
  141 C                    6.0000     0.00051741     0.00040062    -0.00006482
  142 C                    6.0000     0.00002506     0.00005921     0.00008946
  143 N                    7.0000    -0.00034544    -0.00017389     0.00015689
  144 H                    1.0000     0.00027703     0.00057807    -0.00001781
  145 H                    1.0000     0.00091179    -0.00002706    -0.00013126
  146 H                    1.0000     0.00078518     0.00088874    -0.00014643
  147 C                    6.0000    -0.00016779    -0.00009040    -0.00006482
  148 C                    6.0000    -0.00041083     0.00010902    -0.00021316
  149 N                    7.0000    -0.00038947     0.00022223    -0.00008572
  150 H                    1.0000    -0.00141711    -0.00070184    -0.00017510
  151 H                    1.0000     0.00004902     0.00103727     0.00096981
  152 H                    1.0000     0.00100892    -0.00051873    -0.00075551
  153 C                    6.0000     0.00012172     0.00006567    -0.00024604
  154 C                    6.0000     0.00007487    -0.00011703    -0.00014237
  155 N                    7.0000     0.00023754    -0.00009713    -0.00010167
  156 H                    1.0000    -0.00071791     0.00003963    -0.00097529
  157 H                    1.0000     0.00091104     0.00084830     0.00001482
  158 H                    1.0000    -0.00015864    -0.00078083     0.00071734
  159 C                    6.0000     0.00007000    -0.00003390    -0.00036245
  160 C                    6.0000     0.00020617     0.00001665    -0.00010329
  161 N                    7.0000     0.00025379    -0.00000115     0.00009435
  162 H                    1.0000    -0.00035867    -0.00031313    -0.00203901
  163 H                    1.0000    -0.00083261     0.00103557     0.00048018
  164 H                    1.0000     0.00137024    -0.00089025     0.00025360
  165 C                    6.0000    -0.00045731     0.00016554     0.00021222
  166 C                    6.0000    -0.00026456    -0.00000400    -0.00020390
  167 N                    7.0000    -0.00015139     0.00006113    -0.00046941
  168 H                    1.0000    -0.00058582     0.00010295     0.00002625
  169 H                    1.0000    -0.00009944     0.00039930     0.00036358
  170 H                    1.0000    -0.00074947     0.00014417     0.00058941
  171 C                    6.0000     0.00090197     0.00066764    -0.00016418
  172 C                    6.0000     0.00026267     0.00033732    -0.00040591
  173 N                    7.0000    -0.00017376     0.00002307    -0.00035829
  174 H                    1.0000     0.00142259     0.00113289    -0.00030595
  175 H                    1.0000     0.00068446     0.00062644    -0.00028629
  176 H                    1.0000     0.00104918     0.00073151     0.00035357
  177 C                    6.0000     0.00040251     0.00041952    -0.00020163
  178 C                    6.0000     0.00001694    -0.00006348    -0.00007771
  179 N                    7.0000    -0.00032295    -0.00058411    -0.00006304
  180 H                    1.0000     0.00073473     0.00032220    -0.00040591
  181 H                    1.0000     0.00021921     0.00064761    -0.00001513
  182 H                    1.0000     0.00086568     0.00082808    -0.00028459
  183 C                    6.0000    -0.00000535    -0.00026192     0.00003609
  184 C                    6.0000    -0.00017489     0.00003577    -0.00013993
  185 N                    7.0000    -0.00018066     0.00013372    -0.00023867
  186 H                    1.0000    -0.00069769    -0.00076628    -0.00059961
  187 H                    1.0000    -0.00026040    -0.00003834     0.00111343
  188 H                    1.0000     0.00103179    -0.00001918    -0.00034034
  189 C                    6.0000     0.00022355    -0.00009806     0.00005117
  190 C                    6.0000     0.00023584    -0.00010858    -0.00015877
  191 N                    7.0000     0.00018410    -0.00015537    -0.00028119
  192 H                    1.0000     0.00047319    -0.00025946     0.00008971
  193 H                    1.0000    -0.00001650    -0.00030425    -0.00004872
  194 H                    1.0000     0.00016771     0.00022998     0.00020144
  195 C                    6.0000    -0.00044522     0.00033637    -0.00055860
  196 C                    6.0000    -0.00032654     0.00026343    -0.00042727
  197 N                    7.0000    -0.00025133     0.00019729    -0.00034072
  198 H                    1.0000    -0.00014190     0.00023943    -0.00017147
  199 H                    1.0000    -0.00034903     0.00021883    -0.00116313
  200 H                    1.0000    -0.00099891     0.00063174    -0.00046752
  201 C                    6.0000    -0.00067047     0.00049095    -0.00009413
  202 C                    6.0000    -0.00040535     0.00024075     0.00010180
  203 N                    7.0000    -0.00022582     0.00005851     0.00026664
  204 H                    1.0000    -0.00105711     0.00062531     0.00083734
  205 H                    1.0000     0.00010957    -0.00004067    -0.00042594
  206 H                    1.0000    -0.00123172     0.00106505    -0.00090027
  207 C                    6.0000     0.00018737    -0.00025625     0.00018446
  208 C                    6.0000    -0.00029329    -0.00023036     0.00019124
  209 N                    7.0000    -0.00059092    -0.00010076     0.00020711
  210 H                    1.0000     0.00100288    -0.00069069     0.00036264
  211 H                    1.0000    -0.00016184     0.00006803     0.00085453
  212 H                    1.0000     0.00001401    -0.00023848    -0.00067123
  213 C                    6.0000     0.00031086    -0.00037492     0.00031615
  214 C                    6.0000     0.00012531    -0.00036661     0.00006064
  215 N                    7.0000     0.00001607    -0.00036812     0.00003112
  216 H                    1.0000     0.00052345    -0.00095866     0.00043993
  217 H                    1.0000    -0.00025322    -0.00021562     0.00051854
  218 H                    1.0000     0.00070487    -0.00000124     0.00008753
  219 C                    6.0000    -0.00009042    -0.00004840    -0.00018121
  220 C                    6.0000     0.00040157    -0.00006659    -0.00013587
  221 N                    7.0000     0.00060981    -0.00023943    -0.00004413
  222 H                    1.0000    -0.00038191     0.00027118    -0.00100155
  223 H                    1.0000    -0.00058430     0.00031237     0.00054405
  224 H                    1.0000     0.00042405    -0.00057920    -0.00011903
  225 C                    6.0000     0.00049927     0.00037360    -0.00016945
  226 C                    6.0000     0.00040686     0.00023886     0.00013236
  227 N                    7.0000     0.00033921     0.00012712     0.00038891
  228 H                    1.0000     0.00069542     0.00057863    -0.00041461
  229 H                    1.0000     0.00027042     0.00018073    -0.00038154
  230 H                    1.0000     0.00058903     0.00047092     0.00003483
  231 C                    6.0000     0.00011707    -0.00018417    -0.00023451
  232 C                    6.0000    -0.00002476    -0.00019181    -0.00000230
  233 N                    7.0000    -0.00012869    -0.00021184     0.00016482
  234 H                    1.0000     0.00051174    -0.00022582    -0.00076458
  235 H                    1.0000    -0.00057731    -0.00009874    -0.00035017
  236 H                    1.0000     0.00050475    -0.00027968     0.00028440
  237 C                    6.0000    -0.00011499    -0.00038172     0.00014275
  238 C                    6.0000    -0.00023962     0.00001537    -0.00006383
  239 N                    7.0000    -0.00039061     0.00029007    -0.00028724
  240 H                    1.0000     0.00044352    -0.00069164    -0.00060906
  241 H                    1.0000    -0.00082600     0.00011917     0.00027968
  242 H                    1.0000     0.00020522    -0.00097661     0.00097472
  243 C                    6.0000    -0.00043653    -0.00045920     0.00010010
  244 C                    6.0000    -0.00015630    -0.00014729     0.00000468
  245 N                    7.0000     0.00009827     0.00007791     0.00007926
  246 H                    1.0000    -0.00080842    -0.00100571     0.00023716
  247 H                    1.0000    -0.00030368    -0.00006992     0.00045788
  248 H                    1.0000     0.00001204    -0.00082657    -0.00064666
  249 C                    6.0000    -0.00039439     0.00038909     0.00037795
  250 C                    6.0000    -0.00025511     0.00007865     0.00020844
  251 N                    7.0000    -0.00017607    -0.00016613     0.00007489
  252 H                    1.0000    -0.00075570     0.00012886     0.00037341
  253 H                    1.0000     0.00006731     0.00047111     0.00037020
  254 H                    1.0000    -0.00058903     0.00084395     0.00049473
  255 C                    6.0000     0.00030859     0.00047016    -0.00034865
  256 C                    6.0000     0.00029291     0.00024056    -0.00002544
  257 N                    7.0000     0.00015288     0.00027023     0.00037284
  258 H                    1.0000     0.00063211     0.00025530    -0.00003490
  259 H                    1.0000    -0.00019502     0.00098776    -0.00024642
  260 H                    1.0000     0.00031955     0.00027514    -0.00103784
  261 C                    6.0000     0.00023168    -0.00059640     0.00019918
  262 C                    6.0000    -0.00031124    -0.00050134     0.00041820
  263 N                    7.0000    -0.00067463    -0.00044768     0.00047621
  264 H                    1.0000     0.00016631    -0.00094260     0.00043653
  265 H                    1.0000     0.00068087    -0.00057467     0.00003434
  266 H                    1.0000     0.00021014    -0.00016083    -0.00000997
  267 C                    6.0000     0.00025133    -0.00002659    -0.00010182
  268 C                    6.0000    -0.00019067    -0.00031086    -0.00009573
  269 N                    7.0000    -0.00041423    -0.00063892    -0.00022790
  270 H                    1.0000    -0.00026022     0.00023263     0.00039250
  271 H                    1.0000     0.00033051    -0.00071375    -0.00054462
  272 H                    1.0000     0.00057977     0.00068257    -0.00044503
  273 C                    6.0000     0.00018691    -0.00024113     0.00007640
  274 C                    6.0000    -0.00005259     0.00013559     0.00020976
  275 N                    7.0000    -0.00024982     0.00028289     0.00039930
  276 H                    1.0000     0.00042783    -0.00038475     0.00001671
  277 H                    1.0000     0.00011240    -0.00010165    -0.00009199
  278 H                    1.0000     0.00022299    -0.00039098     0.00033297
  279 C                    6.0000    -0.00006011    -0.00044673    -0.00001032
  280 C                    6.0000    -0.00005796    -0.00016276     0.00027288
  281 N                    7.0000     0.00003447    -0.00013141     0.00054575
  282 H                    1.0000    -0.00012047    -0.00075192    -0.00005064
  283 H                    1.0000     0.00022412    -0.00033977    -0.00034658
  284 H                    1.0000    -0.00025379    -0.00064761     0.00021127
  285 C                    6.0000     0.00008744     0.00047734    -0.00015887
  286 C                    6.0000    -0.00012563     0.00015173     0.00039363
  287 N                    7.0000    -0.00007357    -0.00016599     0.00048112
  288 H                    1.0000     0.00009006     0.00047791    -0.00017724
  289 H                    1.0000     0.00012011     0.00050569    -0.00031804
  290 H                    1.0000     0.00006312     0.00050985    -0.00014604
  291 C                    6.0000    -0.00022507     0.00077233     0.00016078
  292 C                    6.0000     0.00000975     0.00027779     0.00040251
  293 N                    7.0000     0.00013810    -0.00009207     0.00045448
  294 H                    1.0000     0.00022620     0.00168545    -0.00092559
  295 H                    1.0000    -0.00098568     0.00154239     0.00112212
  296 H                    1.0000    -0.00002245    -0.00042443     0.00005699
  297 C                    6.0000    -0.00002052     0.00029442    -0.00035451
  298 C                    6.0000     0.00016424     0.00010346     0.00010686
  299 N                    7.0000     0.00026759    -0.00013453     0.00049964
  300 H                    1.0000     0.00024982     0.00068748    -0.00010121
  301 H                    1.0000    -0.00022885    -0.00010138    -0.00038399
  302 H                    1.0000    -0.00018886     0.00051268    -0.00084225
  303 C                    6.0000    -0.00046412    -0.00000109    -0.00012293
  304 C                    6.0000    -0.00000286     0.00005308     0.00007102
  305 N                    7.0000     0.00019615    -0.00007474     0.00019785
  306 H                    1.0000    -0.00058676    -0.00013782    -0.00077517
  307 H                    1.0000    -0.00026437    -0.00072320     0.00037265
  308 H                    1.0000    -0.00049303     0.00080124     0.00021959
  309 C                    6.0000    -0.00028270     0.00082468    -0.00008332
  310 C                    6.0000     0.00006431     0.00029990     0.00000855
  311 N                    7.0000     0.00018935    -0.00007604     0.00010339
  312 H                    1.0000    -0.00072565     0.00106146     0.00006244
  313 H                    1.0000    -0.00023036     0.00074739    -0.00008634
  314 H                    1.0000     0.00000462     0.00112854    -0.00019748
  315 C                    6.0000     0.00021770    -0.00003252    -0.00023622
  316 C                    6.0000    -0.00008689    -0.00000924     0.00017393
  317 N                    7.0000    -0.00018158    -0.00010533     0.00049983
  318 H                    1.0000     0.00030179     0.00051646     0.00005280
  319 H                    1.0000     0.00024094     0.00003254    -0.00091916
  320 H                    1.0000     0.00024340    -0.00059621    -0.00013111
  321 C                    6.0000     0.00045429     0.00020390    -0.00059848
  322 C                    6.0000    -0.00007236     0.00021864    -0.00034034
  323 N                    7.0000    -0.00046260     0.00043615    -0.00005253
  324 H                    1.0000     0.00037284     0.00020674    -0.00079028
  325 H                    1.0000     0.00060396     0.00015535    -0.00059375
  326 H                    1.0000     0.00030935     0.00035678    -0.00014560
  327 C                    6.0000    -0.00007718     0.00051419     0.00032390
  328 C                    6.0000    -0.00003154     0.00015692    -0.00005660
  329 N                    7.0000    -0.00003127     0.00004448    -0.00018334
  330 H                    1.0000     0.00023206     0.00066896     0.00062701
  331 H                    1.0000    -0.00089894     0.00077044     0.00046506
  332 H                    1.0000    -0.00003226     0.00047678     0.00011830
  333 C                    6.0000     0.00041120    -0.00026891     0.00015520
  334 C                    6.0000    -0.00000009    -0.00004496     0.00011329
  335 N                    7.0000    -0.00022998     0.00029272     0.00003719
  336 H                    1.0000     0.00049889    -0.00047224     0.00041272
  337 H                    1.0000     0.00024396    -0.00036887     0.00014332
  338 H                    1.0000     0.00073624    -0.00005996     0.00004807
  339 C                    6.0000    -0.00011456     0.00047149    -0.00020050
  340 C                    6.0000    -0.00026532     0.00040591     0.00029744
  341 N                    7.0000    -0.00031861     0.00017079     0.00056824
  342 H                    1.0000    -0.00050361     0.00049851    -0.00039193
  343 H                    1.0000     0.00008859     0.00006159    -0.00009594
  344 H                    1.0000     0.00011565     0.00083734    -0.00023149
  345 C                    6.0000    -0.00012259     0.00018642     0.00030103
  346 C                    6.0000     0.00011794    -0.00002993    -0.00000175
  347 N                    7.0000     0.00024302    -0.00021108    -0.00015711
  348 H                    1.0000    -0.00037530     0.00126498     0.00028365
  349 H                    1.0000    -0.00075079    -0.00057845     0.00091198
  350 H                    1.0000     0.00066594    -0.00012880    -0.00028119
  351 C                    6.0000    -0.00009220     0.00024699     0.00010669
  352 C                    6.0000    -0.00021600     0.00012185     0.00020560
  353 N                    7.0000    -0.00030765     0.00003785     0.00023527
  354 H                    1.0000     0.00002842    -0.00015343    -0.00013958
  355 H                    1.0000     0.00024888     0.00058393    -0.00000438
  356 H                    1.0000    -0.00047961     0.00027533     0.00026929
 
      Atomic Mass 
      ----------- 
 
      B                 11.009310
      Cl                34.968850
      C                 12.000000
      N                 14.003070
      H                  1.007825
 

 Effective nuclear repulsion energy (a.u.)   60719.6180402264

            Nuclear Dipole moment (a.u.) 
            ----------------------------
        X                 Y               Z
 ---------------- ---------------- ----------------
    -0.0000000000     0.0000000000    -0.0000000000
 
 
            XYZ format geometry
            -------------------
   356
 geometry
 B                    -0.06524065     0.17696614    -1.82496290
 B                    -0.98574065     1.09646614    -0.74996290
 B                     0.85465935    -0.74303386    -0.74996290
 B                    -0.98574065    -0.74303386    -0.74996290
 B                     0.85465935     1.09646614    -0.74996290
 B                    -1.36674065     0.17696614     0.78423710
 B                    -0.06524065    -1.12453386     0.78423710
 B                    -0.06524065     1.47846614     0.78423710
 B                     1.23525935     0.17696614     0.78423710
 B                    -0.06524065     0.17696614     1.86003710
 Cl                   -0.06524065     0.17696614     3.65103710
 Cl                    2.92925935     0.17696614     1.41003710
 Cl                   -0.06524065     0.17696614    -3.61596290
 Cl                    2.05225935    -1.94053386    -1.37596290
 Cl                    2.05225935     2.29446614    -1.37596290
 Cl                   -2.18274065     2.29446614    -1.37596290
 Cl                   -2.18274065    -1.94053386    -1.37596290
 Cl                   -3.05974065     0.17696614     1.41003710
 Cl                   -0.06524065    -2.81753386     1.41003710
 Cl                   -0.06524065     3.17146614     1.41003710
 C                     0.68655935     2.18546614    -7.42296290
 C                     1.10515935     0.92686614    -7.96096290
 N                     1.43825935    -0.08326386    -8.39296290
 H                     0.24720935     2.78346614    -8.20096290
 H                     1.52825935     2.71746614    -7.00496290
 H                    -0.04934065     2.03246614    -6.64896290
 C                    -3.43974065     6.18746614     1.13483710
 C                    -3.91774065     4.85746614     1.26483710
 N                    -4.29974065     3.79246614     1.36603710
 H                    -3.55574065     6.72046614     2.06803710
 H                    -3.99174065     6.70546614     0.36535710
 H                    -2.39474065     6.17746614     0.86593710
 C                     2.11225935    -5.46853386     4.57103710
 C                     3.56625935    -5.52853386     4.54503710
 N                     4.72125935    -5.57453386     4.52403710
 H                     1.74525935    -4.89053386     3.73603710
 H                     1.77325935    -5.00553386     5.48603710
 H                     1.69425935    -6.46253386     4.51203710
 C                     5.80125935     3.58846614    -4.04096290
 C                     6.88825935     3.06546614    -4.81096290
 N                     7.75525935     2.64746614    -5.43396290
 H                     6.14525935     4.40846614    -3.42896290
 H                     5.39525935     2.82246614    -3.39596290
 H                     5.01825935     3.94646614    -4.69196290
 C                    -4.58474065     6.71346614    -8.79696290
 C                    -3.52274065     7.22946614    -7.98096290
 N                    -2.67074065     7.63646614    -7.33096290
 H                    -5.50874065     7.22646614    -8.57896290
 H                    -4.72374065     5.66246614    -8.60396290
 H                    -4.35274065     6.84646614    -9.84096290
 C                    -5.30474065    -3.74553386     6.26703710
 C                    -5.13374065    -4.13453386     7.60603710
 N                    -4.99274065    -4.45053386     8.68803710
 H                    -6.17474065    -3.11653386     6.17003710
 H                    -5.42974065    -4.61653386     5.64403710
 H                    -4.43674065    -3.19953386     5.92703710
 C                     6.33425935     8.61846614     6.47503710
 C                     7.27825935     7.54046614     6.78603710
 N                     8.02625935     6.69546614     7.03603710
 H                     6.40025935     8.88246614     5.43103710
 H                     6.55825935     9.49246614     7.06703710
 H                     5.32325935     8.30546614     6.68903710
 C                    -7.39574065    -2.18553386    -3.47696290
 C                    -8.30574065    -2.46653386    -2.42196290
 N                    -9.02474065    -2.68853386    -1.56996290
 H                    -6.89974065    -1.24853386    -3.30996290
 H                    -7.92474065    -2.14453386    -4.41696290
 H                    -6.64374065    -2.95953386    -3.53196290
 C                    -1.84674065     7.30946614     5.95203710
 C                    -1.38274065     6.18746614     5.18603710
 N                    -1.01574065     5.29046614     4.57003710
 H                    -1.59274065     8.23146614     5.45103710
 H                    -1.39574065     7.30946614     6.93303710
 H                    -2.91974065     7.26246614     6.06203710
 C                    -4.38874065    -4.34953386    -4.96196290
 C                    -3.22674065    -5.20453386    -5.15996290
 N                    -2.30974065    -5.88153386    -5.32796290
 H                    -4.69074065    -3.91853386    -5.90796290
 H                    -4.15574065    -3.54653386    -4.27796290
 H                    -5.21374065    -4.91853386    -4.55996290
 C                     3.11925935     6.22946614    -1.79996290
 C                     4.43025935     5.64546614    -1.61396290
 N                     5.47225935     5.18046614    -1.45996290
 H                     2.40225935     5.74846614    -1.15196290
 H                     2.79625935     6.11046614    -2.82396290
 H                     3.14425935     7.28346614    -1.56596290
 C                    -8.81974065    -7.45653386     3.52003710
 C                    -8.15874065    -6.17853386     3.40803710
 N                    -7.63474065    -5.15953386     3.32403710
 H                    -9.06574065    -7.65853386     4.54903710
 H                    -8.17374065    -8.24353386     3.15803710
 H                    -9.72874065    -7.45753386     2.93603710
 C                     2.25625935    -6.86953386     0.33633710
 C                     3.46425935    -7.70053386     0.44213710
 N                     4.42125935    -8.35153386     0.53403710
 H                     1.90025935    -6.84553386    -0.68456290
 H                     2.47425935    -5.85853386     0.64743710
 H                     1.47125935    -7.26353386     0.96743710
 C                    -9.31974065     6.53046614    -6.16596290
 C                    -8.11474065     5.83546614    -6.54196290
 N                    -7.15274065     5.28346614    -6.83696290
 H                    -9.07274065     7.42646614    -5.61596290
 H                    -9.93774065     5.90046614    -5.54296290
 H                    -9.87774065     6.80946614    -7.04696290
 C                     2.97925935     6.45346614    -6.37396290
 C                     3.91225935     6.94746614    -5.40696290
 N                     4.66025935     7.34646614    -4.63696290
 H                     2.41425935     5.63246614    -5.95996290
 H                     3.49725935     6.11046614    -7.25396290
 H                     2.29225935     7.23746614    -6.65796290
 C                    -4.57874065    -7.24953386    -0.48996290
 C                    -5.09774065    -7.49153386     0.81563710
 N                    -5.50674065    -7.69453386     1.86203710
 H                    -5.38174065    -7.11453386    -1.19896290
 H                    -3.98074065    -8.08153386    -0.79596290
 H                    -3.96274065    -6.36253386    -0.48546290
 C                     5.51525935    -0.66853386     4.43803710
 C                     4.52425935    -1.35753386     5.22903710
 N                     3.74025935    -1.90853386     5.86703710
 H                     5.24925935     0.37266614     4.33003710
 H                     5.58725935    -1.11453386     3.45503710
 H                     6.48125935    -0.73043386     4.91903710
 C                    -0.49094065    -5.08753386    -2.84696290
 C                    -1.07374065    -5.59153386    -1.64296290
 N                    -1.53674065    -5.99653386    -0.67766290
 H                     0.31865935    -4.41253386    -2.61696290
 H                    -1.23074065    -4.55653386    -3.42696290
 H                    -0.10554065    -5.90153386    -3.44196290
 C                    -5.11074065     1.34746614    -5.26496290
 C                    -4.73274065    -0.01445386    -4.95496290
 N                    -4.44074065    -1.10053386    -4.70996290
 H                    -4.90574065     1.56546614    -6.30496290
 H                    -4.55274065     2.03946614    -4.65296290
 H                    -6.16774065     1.48546614    -5.08296290
 C                    -1.15174065    -8.50553386    -4.10096290
 C                     0.15833935    -8.11053386    -4.35296290
 N                     1.22125935    -7.78353386    -4.55696290
 H                    -1.25674065    -8.79653386    -3.06896290
 H                    -1.40374065    -9.33753386    -4.73296290
 H                    -1.82674065    -7.69653386    -4.31096290
 C                    -8.00974065     0.32046614     0.53063710
 C                    -7.31474065    -0.65703386     1.39203710
 N                    -6.77174065    -1.42953386     2.07103710
 H                    -8.46574065    -0.18063386    -0.31126290
 H                    -7.31774065     1.06046614     0.15783710
 H                    -8.78574065     0.82566614     1.08753710
 C                     5.49225935     4.05246614    -7.44596290
 C                     5.15425935     5.06646614    -8.43596290
 N                     4.88125935     5.86546614    -9.22096290
 H                     5.20325935     4.38546614    -6.45896290
 H                     6.55825935     3.86346614    -7.45096290
 H                     4.97325935     3.13146614    -7.66696290
 C                    -4.41074065    -2.91953386     3.61803710
 C                    -3.65974065    -3.82553386     2.79203710
 N                    -3.05474065    -4.54153386     2.13003710
 H                    -4.08374065    -1.90353386     3.46103710
 H                    -4.27174065    -3.17253386     4.65903710
 H                    -5.45974065    -2.99153386     3.37703710
 C                    -5.42274065    -0.32753386     6.04303710
 C                    -4.41174065     0.60256614     5.65503710
 N                    -3.60074065     1.34946614     5.34203710
 H                    -6.35974065     0.18926614     6.19603710
 H                    -5.14074065    -0.81953386     6.96403710
 H                    -5.55574065    -1.07253386     5.27203710
 C                     7.03625935     8.97246614    -3.28196290
 C                     8.37225935     8.38446614    -3.46596290
 N                     9.42725935     7.91446614    -3.60896290
 H                     7.03625935    10.01646614    -3.57196290
 H                     6.73325935     8.90346614    -2.24796290
 H                     6.31425935     8.45046614    -3.88696290
 C                     6.95725935    -5.67753386     0.54503710
 C                     6.18025935    -5.23353386    -0.52746290
 N                     5.54225935    -4.87053386    -1.39196290
 H                     6.79825935    -5.05253386     1.40303710
 H                     7.99725935    -5.64453386     0.27689510
 H                     6.69725935    -6.69253386     0.79923710
 C                     1.83125935    -9.12653386     2.72403710
 C                     0.61395935    -8.39553386     2.78303710
 N                    -0.36294065    -7.80953386     2.83103710
 H                     1.80625935    -9.93853386     3.42903710
 H                     2.66225935    -8.48353386     2.96303710
 H                     1.97125935    -9.52953386     1.73303710
 C                    -0.52994065    -6.61153386     6.18903710
 C                    -1.11474065    -5.32553386     5.81403710
 N                    -1.57774065    -4.30753386     5.51403710
 H                    -1.02274065    -7.00253386     7.06903710
 H                     0.52195935    -6.49853386     6.40503710
 H                    -0.64534065    -7.32253386     5.38403710
 C                    -6.58074065    -4.47953386     0.59773710
 C                    -5.90174065    -4.11553386    -0.59396290
 N                    -5.35674065    -3.82553386    -1.55496290
 H                    -6.45474065    -3.71653386     1.34903710
 H                    -6.19074065    -5.41053386     0.97873710
 H                    -7.63374065    -4.60053386     0.40273710
 C                     7.61625935     7.45546614     0.63683710
 C                     8.46525935     8.55346614     0.17244710
 N                     9.12925935     9.42346614    -0.20396290
 H                     7.88525935     6.53746614     0.13553710
 H                     6.57925935     7.66946614     0.42733710
 H                     7.73225935     7.31246614     1.70103710
 C                    -9.00174065     0.05290614     4.47903710
 C                    -7.95974065     1.04546614     4.34003710
 N                    -7.12974065     1.83446614     4.22803710
 H                    -8.58274065    -0.89453386     4.78603710
 H                    -9.51174065    -0.08345386     3.53503710
 H                    -9.72374065     0.37016614     5.21803710
 C                     7.08825935     4.25246614     5.80003710
 C                     6.39025935     3.11146614     6.40403710
 N                     5.83025935     2.21046614     6.88903710
 H                     7.24625935     4.09646614     4.74303710
 H                     8.04825935     4.39846614     6.27503710
 H                     6.50425935     5.15346614     5.93103710
 C                    -5.82574065    -7.33653386    -6.92896290
 C                    -6.48374065    -7.70753386    -8.16296290
 N                    -7.01074065    -8.00053386    -9.14696290
 H                    -4.80874065    -7.03253386    -7.13096290
 H                    -5.80874065    -8.17153386    -6.24496290
 H                    -6.34574065    -6.51453386    -6.46096290
 C                     7.81825935     0.89796614     8.75103710
 C                     8.82225935     1.87746614     8.46603710
 N                     9.62625935     2.65446614     8.23203710
 H                     6.97125935     1.36146614     9.23203710
 H                     8.21225935     0.13496614     9.40103710
 H                     7.48625935     0.43476614     7.83403710
 C                    -5.15374065     1.39346614    -1.84496290
 C                    -6.55574065     1.65846614    -2.21996290
 N                    -7.66074065     1.86446614    -2.51496290
 H                    -4.86174065     2.01646614    -1.01096290
 H                    -4.49674065     1.60246614    -2.67496290
 H                    -5.02874065     0.35866614    -1.56096290
 C                     8.22925935    -5.49553386     6.44603710
 C                     8.07625935    -4.08353386     6.32903710
 N                     7.95425935    -2.94953386     6.23903710
 H                     9.04925935    -5.72753386     7.10603710
 H                     8.42625935    -5.92853386     5.47903710
 H                     7.32825935    -5.93453386     6.84503710
 C                    -3.55974065    -1.24653386    -8.32396290
 C                    -3.02174065    -0.04490386    -7.73796290
 N                    -2.58474065     0.91126614    -7.26996290
 H                    -4.38574065    -1.00853386    -8.97696290
 H                    -3.91074065    -1.91353386    -7.55296290
 H                    -2.79874065    -1.74953386    -8.90196290
 C                    -5.74174065     4.61646614     6.47303710
 C                    -6.02274065     5.57046614     5.46803710
 N                    -6.24974065     6.34246614     4.66403710
 H                    -5.82974065     5.07146614     7.44703710
 H                    -4.73774065     4.24346614     6.35203710
 H                    -6.43674065     3.79446614     6.40503710
 C                     5.31425935    -4.80653386     7.83303710
 C                     4.66825935    -5.35953386     8.96803710
 N                     4.14825935    -5.80553386     9.88103710
 H                     4.77225935    -3.94153386     7.48303710
 H                     5.35625935    -5.53553386     7.03803710
 H                     6.31925935    -4.50753386     8.08603710
 C                     9.07625935    -4.36753386    -6.56996290
 C                     8.49225935    -5.69853386    -6.66396290
 N                     8.02725935    -6.75153386    -6.73596290
 H                     9.87325935    -4.25653386    -7.29096290
 H                     9.47625935    -4.20353386    -5.57996290
 H                     8.32325935    -3.61853386    -6.76696290
 C                    -7.51274065     5.04446614    -1.02096290
 C                    -7.53174065     5.14046614     0.41123710
 N                    -7.53974065     5.22046614     1.55503710
 H                    -6.60974065     4.55046614    -1.34496290
 H                    -7.55274065     6.02746614    -1.45896290
 H                    -8.36174065     4.47546614    -1.36996290
 C                    -3.33374065     7.88746614    -1.81896290
 C                    -2.03974065     7.35446614    -1.64096290
 N                    -0.99574065     6.92446614    -1.50596290
 H                    -4.00574065     7.12946614    -2.16996290
 H                    -3.30874065     8.68546614    -2.54496290
 H                    -3.69574065     8.27846614    -0.88496290
 C                     2.49825935     3.01346614     5.26803710
 C                     2.55425935     4.42146614     4.91903710
 N                     2.60225935     5.53946614     4.63703710
 H                     2.77825935     2.87646614     6.30003710
 H                     3.17725935     2.44646614     4.64903710
 H                     1.49725935     2.63246614     5.12803710
 C                     3.39425935    -3.67953386    -4.26696290
 C                     4.64425935    -3.19953386    -4.77496290
 N                     5.65025935    -2.81853386    -5.17596290
 H                     3.49925935    -3.96553386    -3.23196290
 H                     3.07625935    -4.54553386    -4.83096290
 H                     2.63925935    -2.91253386    -4.34596290
 C                     1.62925935    -3.59853386    -8.08196290
 C                     0.92115935    -3.59153386    -6.86396290
 N                     0.35245935    -3.58253386    -5.88196290
 H                     0.98245935    -3.91453386    -8.88496290
 H                     2.46725935    -4.27453386    -8.01796290
 H                     1.99525935    -2.60653386    -8.29796290
 C                    -5.50874065    -7.62653386     4.85203710
 C                    -4.49074065    -7.41853386     5.83003710
 N                    -3.67374065    -7.25853386     6.61603710
 H                    -5.27274065    -8.49253386     4.24903710
 H                    -5.58574065    -6.76653386     4.20403710
 H                    -6.46074065    -7.78753386     5.33603710
 C                     3.63725935    -3.03753386     1.81903710
 C                     5.03425935    -2.75453386     1.58203710
 N                     6.14825935    -2.52753386     1.39903710
 H                     3.02125935    -2.31653386     1.30403710
 H                     3.42125935    -2.98653386     2.87603710
 H                     3.38825935    -4.02453386     1.45903710
[...]
nwchem             000000000041029D  Unknown               Unknown  Unknown
nwchem             000000000040FDBE  Unknown               Unknown  Unknown
libc-2.22.so       00002AAAB0A226E5  __libc_start_main     Unknown  Unknown
nwchem             000000000040FCC9  Unknown               Unknown  Unknown
forrtl: error (78): process killed (SIGTERM)
Image              PC                Routine            Line        Source             
nwchem             00000000017CA69E  for__signal_handl     Unknown  Unknown
libpthread-2.22.s  00002AAAAEE71B10  Unknown               Unknown  Unknown
libugni.so.0.6.0   00002AAAB11DB905  GNI_CqGetEvent        Unknown  Unknown
libmpich_intel.so  00002AAAB0680919  Unknown               Unknown  Unknown
libmpich_intel.so  00002AAAB068142A  MPID_nem_gni_poll     Unknown  Unknown
libmpich_intel.so  00002AAAB065E928  MPIDI_CH3I_Progre     Unknown  Unknown
libmpich_intel.so  00002AAAB05BC0BB  MPIDI_Cray_shared     Unknown  Unknown
libmpich_intel.so  00002AAAB05CC9D4  MPIR_CRAY_Allredu     Unknown  Unknown
libmpich_intel.so  00002AAAB04DEC54  MPIR_Allreduce_im     Unknown  Unknown
libmpich_intel.so  00002AAAB04DF5F5  MPI_Allreduce         Unknown  Unknown
libmpich_intel.so  00002AAAB059F942  mpi_allreduce_        Unknown  Unknown
nwchem             0000000001298B7C  Unknown               Unknown  Unknown
nwchem             000000000100D8E4  Unknown               Unknown  Unknown
nwchem             0000000000FF2059  Unknown               Unknown  Unknown
nwchem             00000000010F5D87  Unknown               Unknown  Unknown
nwchem             00000000010EC668  Unknown               Unknown  Unknown
nwchem             00000000010E8070  Unknown               Unknown  Unknown
nwchem             00000000010E4B73  Unknown               Unknown  Unknown
nwchem             00000000010E48DA  Unknown               Unknown  Unknown
nwchem             0000000000425DC2  Unknown               Unknown  Unknown
nwchem             00000000004251B6  Unknown               Unknown  Unknown
nwchem             0000000000418F86  Unknown               Unknown  Unknown
nwchem             000000000041029D  Unknown               Unknown  Unknown
nwchem             000000000040FDBE  Unknown               Unknown  Unknown
libc-2.22.so       00002AAAB0A226E5  __libc_start_main     Unknown  Unknown
nwchem             000000000040FCC9  Unknown               Unknown  Unknown
forrtl: error (78): process killed (SIGTERM)
Image              PC                Routine            Line        Source             
nwchem             00000000017CA69E  for__signal_handl     Unknown  Unknown
libpthread-2.22.s  00002AAAAEE71B10  Unknown               Unknown  Unknown
libmpich_intel.so  00002AAAB068163B  MPID_nem_gni_poll     Unknown  Unknown
libmpich_intel.so  00002AAAB065F206  MPIDI_CH3I_Progre     Unknown  Unknown
libmpich_intel.so  00002AAAB05A9CAD  MPIC_Wait             Unknown  Unknown
libmpich_intel.so  00002AAAB05AA362  MPIC_Sendrecv         Unknown  Unknown
libmpich_intel.so  00002AAAB04DDA54  MPIR_Allreduce_in     Unknown  Unknown
libmpich_intel.so  00002AAAB05CC0FA  MPIR_CRAY_Allredu     Unknown  Unknown
libmpich_intel.so  00002AAAB04DEC54  MPIR_Allreduce_im     Unknown  Unknown
libmpich_intel.so  00002AAAB04DF5F5  MPI_Allreduce         Unknown  Unknown
libmpich_intel.so  00002AAAB059F942  mpi_allreduce_        Unknown  Unknown
nwchem             00000000012C82DC  Unknown               Unknown  Unknown
nwchem             000000000100B59A  Unknown               Unknown  Unknown
nwchem             000000000100A9AC  Unknown               Unknown  Unknown
nwchem             0000000000FF293A  Unknown               Unknown  Unknown
nwchem             000000000144D966  Unknown               Unknown  Unknown
nwchem             00000000010F5BF2  Unknown               Unknown  Unknown
nwchem             00000000010EC668  Unknown               Unknown  Unknown
nwchem             00000000010E8070  Unknown               Unknown  Unknown
nwchem             00000000010E4B73  Unknown               Unknown  Unknown
nwchem             00000000010E48DA  Unknown               Unknown  Unknown
nwchem             0000000000425DC2  Unknown               Unknown  Unknown
nwchem             00000000004251B6  Unknown               Unknown  Unknown
nwchem             0000000000418F86  Unknown               Unknown  Unknown
nwchem             000000000041029D  Unknown               Unknown  Unknown
nwchem             000000000040FDBE  Unknown               Unknown  Unknown
libc-2.22.so       00002AAAB0A226E5  __libc_start_main     Unknown  Unknown
nwchem             000000000040FCC9  Unknown               Unknown  Unknown
forrtl: error (78): process killed (SIGTERM)
Image              PC                Routine            Line        Source             
nwchem             00000000017CA69E  for__signal_handl     Unknown  Unknown
libpthread-2.22.s  00002AAAAEE71B10  Unknown               Unknown  Unknown
libugni.so.0.6.0   00002AAAB1206959  GNI_SmsgGetNextWT     Unknown  Unknown
libmpich_intel.so  00002AAAB0682078  MPID_nem_gni_poll     Unknown  Unknown
libmpich_intel.so  00002AAAB065F206  MPIDI_CH3I_Progre     Unknown  Unknown
libmpich_intel.so  00002AAAB05A9CAD  MPIC_Wait             Unknown  Unknown
libmpich_intel.so  00002AAAB05AA362  MPIC_Sendrecv         Unknown  Unknown
libmpich_intel.so  00002AAAB04DDA54  MPIR_Allreduce_in     Unknown  Unknown
libmpich_intel.so  00002AAAB05CC0FA  MPIR_CRAY_Allredu     Unknown  Unknown
libmpich_intel.so  00002AAAB04DEC54  MPIR_Allreduce_im     Unknown  Unknown
libmpich_intel.so  00002AAAB04DF5F5  MPI_Allreduce         Unknown  Unknown
libmpich_intel.so  00002AAAB059F942  mpi_allreduce_        Unknown  Unknown
nwchem             00000000012C82DC  Unknown               Unknown  Unknown
nwchem             000000000100B59A  Unknown               Unknown  Unknown
nwchem             000000000100A9AC  Unknown               Unknown  Unknown
nwchem             0000000000FF293A  Unknown               Unknown  Unknown
nwchem             000000000144D966  Unknown               Unknown  Unknown
nwchem             00000000010F5BF2  Unknown               Unknown  Unknown
nwchem             00000000010EC668  Unknown               Unknown  Unknown
nwchem             00000000010E8070  Unknown               Unknown  Unknown
nwchem             00000000010E4B73  Unknown               Unknown  Unknown
nwchem             00000000010E48DA  Unknown               Unknown  Unknown
nwchem             0000000000425DC2  Unknown               Unknown  Unknown
nwchem             00000000004251B6  Unknown               Unknown  Unknown
nwchem             0000000000418F86  Unknown               Unknown  Unknown
nwchem             000000000041029D  Unknown               Unknown  Unknown
nwchem             000000000040FDBE  Unknown               Unknown  Unknown
libc-2.22.so       00002AAAB0A226E5  __libc_start_main     Unknown  Unknown
nwchem             000000000040FCC9  Unknown               Unknown  Unknown
forrtl: error (78): process killed (SIGTERM)
Image              PC                Routine            Line        Source             
nwchem             00000000017CA69E  for__signal_handl     Unknown  Unknown
libpthread-2.22.s  00002AAAAEE71B10  Unknown               Unknown  Unknown
libugni.so.0.6.0   00002AAAB11DB6B6  GNI_CqGetEvent        Unknown  Unknown
libmpich_intel.so  00002AAAB06813BB  MPID_nem_gni_poll     Unknown  Unknown
libmpich_intel.so  00002AAAB065F206  MPIDI_CH3I_Progre     Unknown  Unknown
libmpich_intel.so  00002AAAB05A9CAD  MPIC_Wait             Unknown  Unknown
libmpich_intel.so  00002AAAB05AA362  MPIC_Sendrecv         Unknown  Unknown
libmpich_intel.so  00002AAAB04DDA54  MPIR_Allreduce_in     Unknown  Unknown
libmpich_intel.so  00002AAAB05CC0FA  MPIR_CRAY_Allredu     Unknown  Unknown
libmpich_intel.so  00002AAAB04DEC54  MPIR_Allreduce_im     Unknown  Unknown
libmpich_intel.so  00002AAAB04DF5F5  MPI_Allreduce         Unknown  Unknown
libmpich_intel.so  00002AAAB059F942  mpi_allreduce_        Unknown  Unknown
nwchem             00000000012C82DC  Unknown               Unknown  Unknown
nwchem             000000000100B59A  Unknown               Unknown  Unknown
nwchem             000000000100A9AC  Unknown               Unknown  Unknown
nwchem             0000000000FF293A  Unknown               Unknown  Unknown
nwchem             000000000144D966  Unknown               Unknown  Unknown
nwchem             00000000010F5BF2  Unknown               Unknown  Unknown
nwchem             00000000010EC668  Unknown               Unknown  Unknown
nwchem             00000000010E8070  Unknown               Unknown  Unknown
nwchem             00000000010E4B73  Unknown               Unknown  Unknown
nwchem             00000000010E48DA  Unknown               Unknown  Unknown
nwchem             0000000000425DC2  Unknown               Unknown  Unknown
nwchem             00000000004251B6  Unknown               Unknown  Unknown
nwchem             0000000000418F86  Unknown               Unknown  Unknown
nwchem             000000000041029D  Unknown               Unknown  Unknown
nwchem             000000000040FDBE  Unknown               Unknown  Unknown
libc-2.22.so       00002AAAB0A226E5  __libc_start_main     Unknown  Unknown
nwchem             000000000040FCC9  Unknown               Unknown  Unknown
forrtl: error (78): process killed (SIGTERM)
Image              PC                Routine            Line        Source             
nwchem             00000000017CA69E  for__signal_handl     Unknown  Unknown
libpthread-2.22.s  00002AAAAEE71B10  Unknown               Unknown  Unknown
libmpich_intel.so  00002AAAB068142F  MPID_nem_gni_poll     Unknown  Unknown
libmpich_intel.so  00002AAAB065F206  MPIDI_CH3I_Progre     Unknown  Unknown
libmpich_intel.so  00002AAAB05A9CAD  MPIC_Wait             Unknown  Unknown
libmpich_intel.so  00002AAAB05AA362  MPIC_Sendrecv         Unknown  Unknown
libmpich_intel.so  00002AAAB04DDA54  MPIR_Allreduce_in     Unknown  Unknown
libmpich_intel.so  00002AAAB05CC0FA  MPIR_CRAY_Allredu     Unknown  Unknown
libmpich_intel.so  00002AAAB04DEC54  MPIR_Allreduce_im     Unknown  Unknown
libmpich_intel.so  00002AAAB04DF5F5  MPI_Allreduce         Unknown  Unknown
libmpich_intel.so  00002AAAB059F942  mpi_allreduce_        Unknown  Unknown
nwchem             00000000012C82DC  Unknown               Unknown  Unknown
nwchem             000000000100B59A  Unknown               Unknown  Unknown
nwchem             000000000100A9AC  Unknown               Unknown  Unknown
nwchem             0000000000FF293A  Unknown               Unknown  Unknown
nwchem             000000000144D966  Unknown               Unknown  Unknown
nwchem             00000000010F5BF2  Unknown               Unknown  Unknown
nwchem             00000000010EC668  Unknown               Unknown  Unknown
nwchem             00000000010E8070  Unknown               Unknown  Unknown
nwchem             00000000010E4B73  Unknown               Unknown  Unknown
nwchem             00000000010E48DA  Unknown               Unknown  Unknown
nwchem             0000000000425DC2  Unknown               Unknown  Unknown
nwchem             00000000004251B6  Unknown               Unknown  Unknown
nwchem             0000000000418F86  Unknown               Unknown  Unknown
nwchem             000000000041029D  Unknown               Unknown  Unknown
nwchem             000000000040FDBE  Unknown               Unknown  Unknown
libc-2.22.so       00002AAAB0A226E5  __libc_start_main     Unknown  Unknown
nwchem             000000000040FCC9  Unknown               Unknown  Unknown
forrtl: error (78): process killed (SIGTERM)
Image              PC                Routine            Line        Source             
nwchem             00000000017CA69E  for__signal_handl     Unknown  Unknown
libpthread-2.22.s  00002AAAAEE71B10  Unknown               Unknown  Unknown
libugni.so.0.6.0   00002AAAB1206963  GNI_SmsgGetNextWT     Unknown  Unknown
libmpich_intel.so  00002AAAB0682078  MPID_nem_gni_poll     Unknown  Unknown
libmpich_intel.so  00002AAAB065F206  MPIDI_CH3I_Progre     Unknown  Unknown
libmpich_intel.so  00002AAAB05A9CAD  MPIC_Wait             Unknown  Unknown
libmpich_intel.so  00002AAAB05AA362  MPIC_Sendrecv         Unknown  Unknown
libmpich_intel.so  00002AAAB04DDA54  MPIR_Allreduce_in     Unknown  Unknown
libmpich_intel.so  00002AAAB05CC0FA  MPIR_CRAY_Allredu     Unknown  Unknown
libmpich_intel.so  00002AAAB04DEC54  MPIR_Allreduce_im     Unknown  Unknown
libmpich_intel.so  00002AAAB04DF5F5  MPI_Allreduce         Unknown  Unknown
libmpich_intel.so  00002AAAB059F942  mpi_allreduce_        Unknown  Unknown
nwchem             00000000012C82DC  Unknown               Unknown  Unknown
nwchem             000000000100B59A  Unknown               Unknown  Unknown
nwchem             000000000100A9AC  Unknown               Unknown  Unknown
nwchem             0000000000FF293A  Unknown               Unknown  Unknown
nwchem             000000000144D966  Unknown               Unknown  Unknown
nwchem             00000000010F5BF2  Unknown               Unknown  Unknown
nwchem             00000000010EC668  Unknown               Unknown  Unknown
nwchem             00000000010E8070  Unknown               Unknown  Unknown
nwchem             00000000010E4B73  Unknown               Unknown  Unknown
nwchem             00000000010E48DA  Unknown               Unknown  Unknown
nwchem             0000000000425DC2  Unknown               Unknown  Unknown
nwchem             00000000004251B6  Unknown               Unknown  Unknown
nwchem             0000000000418F86  Unknown               Unknown  Unknown
nwchem             000000000041029D  Unknown               Unknown  Unknown
nwchem             000000000040FDBE  Unknown               Unknown  Unknown
libc-2.22.so       00002AAAB0A226E5  __libc_start_main     Unknown  Unknown
nwchem             000000000040FCC9  Unknown               Unknown  Unknown
forrtl: error (78): process killed (SIGTERM)
Image              PC                Routine            Line        Source             
nwchem             00000000017CA69E  for__signal_handl     Unknown  Unknown
libpthread-2.22.s  00002AAAAEE71B10  Unknown               Unknown  Unknown
libmpich_intel.so  00002AAAB065F22E  MPIDI_CH3I_Progre     Unknown  Unknown
libmpich_intel.so  00002AAAB05A9CAD  MPIC_Wait             Unknown  Unknown
libmpich_intel.so  00002AAAB05AA362  MPIC_Sendrecv         Unknown  Unknown
libmpich_intel.so  00002AAAB04DDA54  MPIR_Allreduce_in     Unknown  Unknown
libmpich_intel.so  00002AAAB05CC0FA  MPIR_CRAY_Allredu     Unknown  Unknown
libmpich_intel.so  00002AAAB04DEC54  MPIR_Allreduce_im     Unknown  Unknown
libmpich_intel.so  00002AAAB04DF5F5  MPI_Allreduce         Unknown  Unknown
libmpich_intel.so  00002AAAB059F942  mpi_allreduce_        Unknown  Unknown
nwchem             00000000012C82DC  Unknown               Unknown  Unknown
nwchem             000000000100B59A  Unknown               Unknown  Unknown
nwchem             000000000100A9AC  Unknown               Unknown  Unknown
nwchem             0000000000FF293A  Unknown               Unknown  Unknown
nwchem             000000000144D966  Unknown               Unknown  Unknown
nwchem             00000000010F5BF2  Unknown               Unknown  Unknown
nwchem             00000000010EC668  Unknown               Unknown  Unknown
nwchem             00000000010E8070  Unknown               Unknown  Unknown
nwchem             00000000010E4B73  Unknown               Unknown  Unknown
nwchem             00000000010E48DA  Unknown               Unknown  Unknown
nwchem             0000000000425DC2  Unknown               Unknown  Unknown
nwchem             00000000004251B6  Unknown               Unknown  Unknown
nwchem             0000000000418F86  Unknown               Unknown  Unknown
nwchem             000000000041029D  Unknown               Unknown  Unknown
nwchem             000000000040FDBE  Unknown               Unknown  Unknown
libc-2.22.so       00002AAAB0A226E5  __libc_start_main     Unknown  Unknown
nwchem             000000000040FCC9  Unknown               Unknown  Unknown
forrtl: error (78): process killed (SIGTERM)
Image              PC                Routine            Line        Source             
nwchem             00000000017CA69E  for__signal_handl     Unknown  Unknown
libpthread-2.22.s  00002AAAAEE71B10  Unknown               Unknown  Unknown
libmpich_intel.so  00002AAAB0680789  Unknown               Unknown  Unknown
libmpich_intel.so  00002AAAB068142A  MPID_nem_gni_poll     Unknown  Unknown
libmpich_intel.so  00002AAAB065E928  MPIDI_CH3I_Progre     Unknown  Unknown
libmpich_intel.so  00002AAAB05BC0BB  MPIDI_Cray_shared     Unknown  Unknown
libmpich_intel.so  00002AAAB05CC9D4  MPIR_CRAY_Allredu     Unknown  Unknown
libmpich_intel.so  00002AAAB04DEC54  MPIR_Allreduce_im     Unknown  Unknown
libmpich_intel.so  00002AAAB04DF5F5  MPI_Allreduce         Unknown  Unknown
libmpich_intel.so  00002AAAB059F942  mpi_allreduce_        Unknown  Unknown
nwchem             0000000001298B7C  Unknown               Unknown  Unknown
nwchem             000000000100D8E4  Unknown               Unknown  Unknown
nwchem             0000000000FF2059  Unknown               Unknown  Unknown
nwchem             00000000010F5D87  Unknown               Unknown  Unknown
nwchem             00000000010EC668  Unknown               Unknown  Unknown
nwchem             00000000010E8070  Unknown               Unknown  Unknown
nwchem             00000000010E4B73  Unknown               Unknown  Unknown
nwchem             00000000010E48DA  Unknown               Unknown  Unknown
nwchem             0000000000425DC2  Unknown               Unknown  Unknown
nwchem             00000000004251B6  Unknown               Unknown  Unknown
nwchem             0000000000418F86  Unknown               Unknown  Unknown
nwchem             000000000041029D  Unknown               Unknown  Unknown
nwchem             000000000040FDBE  Unknown               Unknown  Unknown
libc-2.22.so       00002AAAB0A226E5  __libc_start_main     Unknown  Unknown
nwchem             000000000040FCC9  Unknown               Unknown  Unknown
forrtl: error (78): process killed (SIGTERM)
Image              PC                Routine            Line        Source             
nwchem             00000000017CA69E  for__signal_handl     Unknown  Unknown
libpthread-2.22.s  00002AAAAEE71B10  Unknown               Unknown  Unknown
libmpich_intel.so  00002AAAB05BC0A8  MPIDI_Cray_shared     Unknown  Unknown
libmpich_intel.so  00002AAAB05CC9D4  MPIR_CRAY_Allredu     Unknown  Unknown
libmpich_intel.so  00002AAAB04DEC54  MPIR_Allreduce_im     Unknown  Unknown
libmpich_intel.so  00002AAAB04DF5F5  MPI_Allreduce         Unknown  Unknown
libmpich_intel.so  00002AAAB059F942  mpi_allreduce_        Unknown  Unknown
nwchem             0000000001298B7C  Unknown               Unknown  Unknown
nwchem             000000000100D8E4  Unknown               Unknown  Unknown
nwchem             0000000000FF2059  Unknown               Unknown  Unknown
nwchem             00000000010F5D87  Unknown               Unknown  Unknown
nwchem             00000000010EC668  Unknown               Unknown  Unknown
nwchem             00000000010E8070  Unknown               Unknown  Unknown
nwchem             00000000010E4B73  Unknown               Unknown  Unknown
nwchem             00000000010E48DA  Unknown               Unknown  Unknown
nwchem             0000000000425DC2  Unknown               Unknown  Unknown
nwchem             00000000004251B6  Unknown               Unknown  Unknown
nwchem             0000000000418F86  Unknown               Unknown  Unknown
nwchem             000000000041029D  Unknown               Unknown  Unknown
nwchem             000000000040FDBE  Unknown               Unknown  Unknown
libc-2.22.so       00002AAAB0A226E5  __libc_start_main     Unknown  Unknown
nwchem             000000000040FCC9  Unknown               Unknown  Unknown
