[PE_0]: MPI rank order: Using default aprun rank ordering.
[PE_0]: rank 0 is on nid11595
[PE_0]: rank 1 is on nid11600
[PE_0]: rank 2 is on nid11602
[PE_0]: rank 3 is on nid11603
[PE_0]: rank 4 is on nid11605
[PE_0]: rank 5 is on nid11607
[PE_0]: rank 6 is on nid11609
[PE_0]: rank 7 is on nid11610
[PE_0]: rank 8 is on nid11614
[PE_0]: rank 9 is on nid11616
[PE_0]: rank 10 is on nid11619
[PE_0]: rank 11 is on nid11620
[PE_0]: rank 12 is on nid11622
[PE_0]: rank 13 is on nid11625
[PE_0]: rank 14 is on nid11626
[PE_0]: rank 15 is on nid11627
MPI VERSION    : CRAY MPICH version 7.4.4 (ANL base 3.2rc1)
MPI BUILD INFO : Built Mon Sep 26 14:08:25 2016 (git hash 7f377e8) MT-G
 argument  1 = ./water256.nw8_1
  NWChem w/ OpenMP: maximum threads = 66
                                         
                                         
 
 
              Northwest Computational Chemistry Package (NWChem) 6.6
              ------------------------------------------------------
 
 
                    Environmental Molecular Sciences Laboratory
                       Pacific Northwest National Laboratory
                                Richland, WA 99352
 
                              Copyright (c) 1994-2015
                       Pacific Northwest National Laboratory
                            Battelle Memorial Institute
 
             NWChem is an open-source computational chemistry package
                        distributed under the terms of the
                      Educational Community License (ECL) 2.0
             A copy of the license is included with this distribution
                              in the LICENSE.TXT file
 
                                  ACKNOWLEDGMENT
                                  --------------

            This software and its documentation were developed at the
            EMSL at Pacific Northwest National Laboratory, a multiprogram
            national laboratory, operated for the U.S. Department of Energy
            by Battelle under Contract Number DE-AC05-76RL01830. Support
            for this work was provided by the Department of Energy Office
            of Biological and Environmental Research, Office of Basic
            Energy Sciences, and the Office of Advanced Scientific Computing.


           Job information
           ---------------

    hostname        = nid11595
    program         = /global/cscratch1/sd/ebylaska/water256/./nwchem.eric2
    date            = Sat Apr 22 06:49:49 2017

    compiled        = Sun_Apr_16_16:09:16_2017
    source          = /global/homes/e/ebylaska/nwchem-releases/nwchem
    nwchem branch   = Development
    nwchem revision = 29200
    ga revision     = 10752
    input           = ./water256.nw8_1
    prefix          = water256.
    data base       = ./perm_water256/water256.db
    status          = startup
    nproc           =       16
    time left       =     -1s



           Memory information
           ------------------

    heap     = 1572864000 doubles =  12000.0 Mbytes
    stack    =  524287997 doubles =   4000.0 Mbytes
    global   =   13107200 doubles =    100.0 Mbytes (distinct from heap & stack)
    total    = 2110259197 doubles =  16100.0 Mbytes
    verify   = yes
    hardfail = no 


           Directory information
           ---------------------
 
  0 permanent = ./perm_water256
  0 scratch   = ./perm_water256
 
 
 
 
                                NWChem Input Module
                                -------------------
 
 
               tequil 300K  methane.xyz + 256 water aimd simulation
               ----------------------------------------------------

 Scaling coordinates for geometry "geometry" by  1.889725989
 (inverse scale =  0.529177249)

 
 
                             Geometry "geometry" -> ""
                             -------------------------
 
 Output coordinates in angstroms (scale by  1.889725989 to convert to a.u.)
 
  No.       Tag          Charge          X              Y              Z
 ---- ---------------- ---------- -------------- -------------- --------------
    1 C                    6.0000    -0.11761812    -0.49527971     0.16631572
    2 H                    1.0000     0.97048188    -0.49507971     0.17509572
    3 H                    1.0000    -0.48061812     0.53042029     0.17509572
    4 H                    1.0000    -0.48731812    -1.01837971     1.04582572
    5 H                    1.0000    -0.47291812    -0.99797971    -0.73077428
    6 O                    8.0000    -1.77591812     6.63932029    -3.29157428
    7 H                    1.0000    -2.59091812     6.57832029    -2.71557428
    8 H                    1.0000    -1.34191812     7.53032029    -3.16257428
    9 O                    8.0000     3.92108188    -5.88367971     2.66442572
   10 H                    1.0000     3.03308188    -6.34267971     2.71142572
   11 H                    1.0000     3.94608188    -5.13767971     3.32942572
   12 O                    8.0000     6.99408188    -1.48167971    -9.56157428
   13 H                    1.0000     7.02508188    -0.58517971   -10.00757428
   14 H                    1.0000     7.71408188    -1.53667971    -8.86957428
   15 O                    8.0000     5.86508188    -4.54967971     0.82392572
   16 H                    1.0000     5.33508188    -3.82167971     1.25942572
   17 H                    1.0000     5.82708188    -5.37367971     1.38942572
   18 O                    8.0000    -5.02491812     6.28332029    -5.98357428
   19 H                    1.0000    -4.17591812     6.59332029    -6.41057428
   20 H                    1.0000    -5.40291812     7.01832029    -5.42057428
   21 O                    8.0000    -1.31091812     2.08332029     3.74742572
   22 H                    1.0000    -0.48151812     2.59932029     3.96342572
   23 H                    1.0000    -2.00291812     2.25832029     4.44742572
   24 O                    8.0000    -2.59091812    -4.49167971    -8.60557428
   25 H                    1.0000    -1.60291812    -4.35267971    -8.54257428
   26 H                    1.0000    -3.02991812    -3.64267971    -8.90057428
   27 O                    8.0000    -0.93351812    -1.85067971    -1.80957428
   28 H                    1.0000    -0.90241812    -1.54367971    -2.76057428
   29 H                    1.0000    -0.95701812    -2.84967971    -1.78257428
   30 O                    8.0000    -4.19391812    -9.39367971    -5.39357428
   31 H                    1.0000    -4.36991812   -10.38267971    -5.40657428
   32 H                    1.0000    -4.37791812    -9.01067971    -6.29857428
   33 O                    8.0000    -5.35491812    -3.88967971    -1.62257428
   34 H                    1.0000    -4.75691812    -3.15567971    -1.94357428
   35 H                    1.0000    -4.96791812    -4.77367971    -1.88557428
   36 O                    8.0000     2.68208188   -10.01467971    -8.99257428
   37 H                    1.0000     2.55408188    -9.06567971    -8.70557428
   38 H                    1.0000     3.37208188   -10.45267971    -8.41357428
   39 O                    8.0000     1.59908188    -0.40232971    -7.02257428
   40 H                    1.0000     0.65548188    -0.06977971    -7.02057428
   41 H                    1.0000     2.21208188     0.33442029    -6.73757428
   42 O                    8.0000    -7.86791812    -3.21467971    -6.79257428
   43 H                    1.0000    -8.31891812    -3.09867971    -5.90757428
   44 H                    1.0000    -8.37291812    -2.70867971    -7.49157428
   45 O                    8.0000    -6.32991812     6.60432029     8.79242572
   46 H                    1.0000    -5.46791812     7.04732029     9.04142572
   47 H                    1.0000    -7.02091812     7.30332029     8.60742572
   48 O                    8.0000     7.37408188     3.18232029     5.77642572
   49 H                    1.0000     6.50608188     2.72632029     5.96942572
   50 H                    1.0000     7.57308188     3.12032029     4.79742572
   51 O                    8.0000    -3.29391812     6.49632029     9.32242572
   52 H                    1.0000    -2.78591812     6.83932029     8.53142572
   53 H                    1.0000    -3.39391812     7.22732029     9.99742572
   54 O                    8.0000     0.60488188    -8.11667971     1.37242572
   55 H                    1.0000     0.79928188    -7.47467971     2.11342572
   56 H                    1.0000     0.39028188    -9.01467971     1.75742572
   57 O                    8.0000     9.30908188     4.74832029     6.92842572
   58 H                    1.0000     9.80808188     5.54432029     6.58442572
   59 H                    1.0000     8.67008188     4.42932029     6.22942572
   60 O                    8.0000     7.37808188     3.81232029    -4.70557428
   61 H                    1.0000     7.13708188     4.48532029    -4.00657428
   62 H                    1.0000     7.67608188     4.28432029    -5.53557428
   63 O                    8.0000     3.34108188     9.06432029     3.24042572
   64 H                    1.0000     4.14108188     8.47632029     3.36042572
   65 H                    1.0000     3.12308188     9.51232029     4.10842572
   66 O                    8.0000    -7.09891812    -1.03637971     5.60042572
   67 H                    1.0000    -7.04991812    -0.08677971     5.91042572
   68 H                    1.0000    -6.20591812    -1.31817971     5.24942572
   69 O                    8.0000     5.76808188     5.27332029    -7.67857428
   70 H                    1.0000     6.75708188     5.20832029    -7.81357428
   71 H                    1.0000     5.57508188     5.89832029    -6.92257428
   72 O                    8.0000    -4.28091812    -6.61567971    -7.22157428
   73 H                    1.0000    -3.82291812    -5.81867971    -7.61657428
   74 H                    1.0000    -4.64091812    -6.37867971    -6.31857428
   75 O                    8.0000     2.75708188    -6.09667971     5.48642572
   76 H                    1.0000     2.18908188    -6.15167971     6.30742572
   77 H                    1.0000     2.25708188    -5.61367971     4.76742572
   78 O                    8.0000    -0.40811812    -4.55867971     0.54552572
   79 H                    1.0000    -1.03891812    -3.95467971     0.05952572
   80 H                    1.0000    -0.69551812    -5.50867971     0.42282572
   81 O                    8.0000    -2.27591812    -8.99367971    -7.93257428
   82 H                    1.0000    -2.64291812    -8.99867971    -7.00157428
   83 H                    1.0000    -1.74391812    -8.15967971    -8.07657428
   84 O                    8.0000    -7.03391812     6.27932029     3.63442572
   85 H                    1.0000    -6.41491812     6.42532029     4.40642572
   86 H                    1.0000    -6.49891812     6.12232029     2.80442572
   87 O                    8.0000     3.26008188    -7.21267971    -8.25357428
   88 H                    1.0000     3.49708188    -7.56267971    -7.34757428
   89 H                    1.0000     4.07808188    -6.83867971    -8.69157428
   90 O                    8.0000    -4.12791812     8.75032029    -8.63857428
   91 H                    1.0000    -3.21291812     8.88632029    -8.25857428
   92 H                    1.0000    -4.69191812     9.55332029    -8.44557428
   93 O                    8.0000    -4.40391812    -9.02667971     4.76342572
   94 H                    1.0000    -4.07191812    -9.29467971     5.66842572
   95 H                    1.0000    -4.55691812    -8.03867971     4.74342572
   96 O                    8.0000     3.28708188    -3.05567971    -1.65057428
   97 H                    1.0000     3.55308188    -2.09367971    -1.70357428
   98 H                    1.0000     3.02408188    -3.27767971    -0.71147428
   99 O                    8.0000     3.98508188    -0.85607971     9.79942572
  100 H                    1.0000     4.74308188    -0.27123971    10.08742572
  101 H                    1.0000     3.32308188    -0.93477971    10.54242572
  102 O                    8.0000    -8.54291812    -7.15667971    -8.62657428
  103 H                    1.0000    -9.14191812    -6.66867971    -9.26257428
  104 H                    1.0000    -7.60891812    -7.15767971    -8.98257428
  105 O                    8.0000     7.81508188    -6.84567971    -1.77857428
  106 H                    1.0000     7.53208188    -5.88767971    -1.82457428
  107 H                    1.0000     7.68208188    -7.27467971    -2.67157428
  108 O                    8.0000    -8.48591812     8.17032029    -7.21057428
  109 H                    1.0000    -7.81491812     8.84532029    -6.90457428
  110 H                    1.0000    -8.86091812     8.45032029    -8.09457428
  111 O                    8.0000     5.15608188    -8.22767971    -6.38057428
  112 H                    1.0000     5.23108188    -9.19567971    -6.61957428
  113 H                    1.0000     5.80808188    -7.69867971    -6.92257428
  114 O                    8.0000     9.20608188     0.57232029    -7.70857428
  115 H                    1.0000     9.29508188     0.94832029    -6.78657428
  116 H                    1.0000     8.81008188     1.26332029    -8.31357428
  117 O                    8.0000    -0.56941812     7.10032029     8.24142572
  118 H                    1.0000    -0.37511812     7.35932029     7.29542572
  119 H                    1.0000    -0.21151812     7.80132029     8.85842572
  120 O                    8.0000     2.44308188    -7.85867971    -5.19457428
  121 H                    1.0000     2.61608188    -8.84067971    -5.12157428
  122 H                    1.0000     3.24908188    -7.35367971    -4.88357428
  123 O                    8.0000    -7.84191812    -0.94867971    -8.47957428
  124 H                    1.0000    -8.57291812    -0.36628971    -8.12257428
  125 H                    1.0000    -7.90391812    -0.98867971    -9.47657428
  126 O                    8.0000    -2.52791812    -2.10967971     7.64542572
  127 H                    1.0000    -2.23491812    -1.66667971     8.49242572
  128 H                    1.0000    -1.72391812    -2.36967971     7.11042572
  129 O                    8.0000    -5.84091812    -1.33857971     0.34692572
  130 H                    1.0000    -6.32591812    -0.86947971    -0.39127428
  131 H                    1.0000    -6.50191812    -1.79667971     0.94152572
  132 O                    8.0000     0.88738188     5.93332029    -3.99057428
  133 H                    1.0000     0.85868188     4.95132029    -4.17757428
  134 H                    1.0000     0.03081188     6.21532029    -3.55857428
  135 O                    8.0000     5.27108188     8.14532029     8.74842572
  136 H                    1.0000     4.69708188     7.67532029     9.41842572
  137 H                    1.0000     4.73808188     8.86332029     8.29942572
  138 O                    8.0000     4.23708188    -6.28067971    -3.70457428
  139 H                    1.0000     3.98008188    -6.80067971    -2.88957428
  140 H                    1.0000     4.67808188    -5.42667971    -3.42957428
  141 O                    8.0000    -3.15091812   -10.13967971     2.25442572
  142 H                    1.0000    -3.67291812    -9.67167971     2.96742572
  143 H                    1.0000    -2.30491812   -10.50267971     2.64542572
  144 O                    8.0000    -5.98191812     4.51532029     0.01002572
  145 H                    1.0000    -5.14991812     4.84632029     0.45522572
  146 H                    1.0000    -6.07491812     3.53232029     0.16708572
  147 O                    8.0000    -9.60891812    -1.74667971     4.21442572
  148 H                    1.0000    -8.85391812    -1.60367971     4.85542572
  149 H                    1.0000    -9.52691812    -1.10167971     3.45442572
  150 O                    8.0000    -9.09591812     2.97632029     1.80542572
  151 H                    1.0000    -8.35191812     3.12432029     2.45642572
  152 H                    1.0000    -9.12091812     3.73032029     1.14982572
  153 O                    8.0000    -2.66491812     3.70132029     9.04942572
  154 H                    1.0000    -1.87591812     3.32332029     9.53242572
  155 H                    1.0000    -2.53591812     4.68532029     8.92042572
  156 O                    8.0000     2.33508188     4.32032029     2.32042572
  157 H                    1.0000     2.92408188     3.88932029     1.63642572
  158 H                    1.0000     1.80208188     3.61732029     2.79142572
  159 O                    8.0000    -0.08641812     4.04332029    -1.36457428
  160 H                    1.0000    -0.43061812     3.85732029    -2.28457428
  161 H                    1.0000    -0.32961812     4.97632029    -1.10057428
  162 O                    8.0000    -3.41591812     3.86732029     6.24642572
  163 H                    1.0000    -2.92691812     4.57932029     5.74342572
  164 H                    1.0000    -3.31291812     4.02232029     7.22842572
  165 O                    8.0000    -7.05591812    -6.45267971     7.28342572
  166 H                    1.0000    -7.39091812    -5.54567971     7.02742572
  167 H                    1.0000    -7.29591812    -7.11067971     6.57042572
  168 O                    8.0000    -7.24591812    -7.78067971     1.53942572
  169 H                    1.0000    -6.99491812    -8.43367971     2.25342572
  170 H                    1.0000    -6.45591812    -7.20967971     1.31642572
  171 O                    8.0000     8.65308188     7.21032029    -0.45337428
  172 H                    1.0000     8.68608188     8.05732029     0.07692572
  173 H                    1.0000     9.41008188     6.61632029    -0.18117428
  174 O                    8.0000     9.45908188     6.58432029    -3.08657428
  175 H                    1.0000    10.29008188     6.45732029    -2.55057428
  176 H                    1.0000     8.66608188     6.55332029    -2.47957428
  177 O                    8.0000    -0.82051812    -7.91867971     7.92942572
  178 H                    1.0000    -1.45391812    -8.61867971     7.60042572
  179 H                    1.0000    -1.21591812    -7.01267971     7.77542572
  180 O                    8.0000     0.68108188     8.78832029     6.14642572
  181 H                    1.0000     1.36708188     8.06532029     6.06242572
  182 H                    1.0000     1.12508188     9.63832029     6.42742572
  183 O                    8.0000    -3.86791812     0.84232029     6.08542572
  184 H                    1.0000    -3.39491812     0.17902029     6.66442572
  185 H                    1.0000    -3.55191812     1.76432029     6.30742572
  186 O                    8.0000    -6.19891812    -4.91967971    -9.56357428
  187 H                    1.0000    -5.63791812    -4.10567971    -9.41057428
  188 H                    1.0000    -6.87191812    -4.73067971   -10.27757428
  189 O                    8.0000    -9.21891812     5.14432029     9.45342572
  190 H                    1.0000    -8.39291812     4.59332029     9.57442572
  191 H                    1.0000    -9.45791812     5.17632029     8.48242572
  192 O                    8.0000    -5.15391812    -2.54567971     8.49142572
  193 H                    1.0000    -4.62791812    -2.23867971     9.28542572
  194 H                    1.0000    -5.35391812    -1.76267971     7.90242572
  195 O                    8.0000    -1.81291812     3.51132029    -6.03457428
  196 H                    1.0000    -1.69791812     4.44832029    -6.36657428
  197 H                    1.0000    -1.16791812     3.34032029    -5.29057428
  198 O                    8.0000     4.82808188     0.16562029     2.55842572
  199 H                    1.0000     5.04908188    -0.75407971     2.23342572
  200 H                    1.0000     5.66908188     0.63362029     2.83042572
  201 O                    8.0000    -5.24591812    -8.17467971    -9.48357428
  202 H                    1.0000    -5.17691812    -7.69867971   -10.35757428
  203 H                    1.0000    -5.03191812    -7.53967971    -8.74157428
  204 O                    8.0000     9.45508188    -4.54567971    -2.51857428
  205 H                    1.0000     9.87008188    -4.96067971    -1.70957428
  206 H                    1.0000     8.62608188    -4.05467971    -2.25357428
  207 O                    8.0000     7.44608188     9.48132029    -2.26557428
  208 H                    1.0000     8.43808188     9.44232029    -2.14257428
  209 H                    1.0000     7.01508188     9.76732029    -1.41057428
  210 O                    8.0000     0.73328188    -5.55867971     2.97242572
  211 H                    1.0000     0.14028188    -5.16367971     3.67342572
  212 H                    1.0000     0.44918188    -5.22867971     2.07142572
  213 O                    8.0000    -7.88791812     8.88232029     0.05512572
  214 H                    1.0000    -8.22691812     9.58532029     0.68092572
  215 H                    1.0000    -6.88891812     8.85832029     0.09172572
  216 O                    8.0000    -7.53791812     0.11232029    -5.69257428
  217 H                    1.0000    -7.92391812     0.91232029    -6.15157428
  218 H                    1.0000    -6.93191812    -0.37376971    -6.32257428
  219 O                    8.0000    -7.90091812    -3.74867971     8.22542572
  220 H                    1.0000    -7.26591812    -2.97567971     8.23242572
  221 H                    1.0000    -8.36891812    -3.78667971     7.34242572
  222 O                    8.0000    -7.49391812     5.45732029    -2.18657428
  223 H                    1.0000    -7.29291812     5.33932029    -3.15857428
  224 H                    1.0000    -7.03891812     4.73732029    -1.66257428
  225 O                    8.0000    -0.76221812    -1.59567971     2.48342572
  226 H                    1.0000    -0.05904812    -2.21067971     2.84142572
  227 H                    1.0000    -0.88261812    -0.82607971     3.11042572
  228 O                    8.0000     1.02408188     6.76632029    -7.11457428
  229 H                    1.0000     1.04308188     7.74232029    -6.89657428
  230 H                    1.0000     1.72108188     6.29132029    -6.57757428
  231 O                    8.0000    -4.86891812    -1.11937971     3.60942572
  232 H                    1.0000    -4.52491812    -0.61207971     4.39942572
  233 H                    1.0000    -4.52991812    -0.69667971     2.76942572
  234 O                    8.0000     3.56708188    -3.14967971     7.60142572
  235 H                    1.0000     3.92808188    -4.08167971     7.65042572
  236 H                    1.0000     4.18808188    -2.52667971     8.07542572
  237 O                    8.0000    -6.80991812     3.56132029     9.94842572
  238 H                    1.0000    -6.24591812     2.76632029    10.17142572
  239 H                    1.0000    -6.24391812     4.38632029     9.96442572
  240 O                    8.0000    -5.07291812     2.06732029    -3.15457428
  241 H                    1.0000    -4.29091812     2.67832029    -3.03057428
  242 H                    1.0000    -5.65091812     2.41232029    -3.89457428
  243 O                    8.0000     6.03808188     5.86532029     6.83242572
  244 H                    1.0000     6.76808188     5.32132029     7.24642572
  245 H                    1.0000     5.93608188     6.72332029     7.33642572
  246 O                    8.0000     4.62908188    -6.16167971     8.34842572
  247 H                    1.0000     5.39608188    -5.56167971     8.12042572
  248 H                    1.0000     4.55608188    -6.24667971     9.34242572
  249 O                    8.0000     7.98808188     9.25632029     7.76942572
  250 H                    1.0000     7.53608188     8.59332029     8.36542572
  251 H                    1.0000     7.68808188     9.11532029     6.82542572
  252 O                    8.0000    -0.64221812     5.55432029    -9.00657428
  253 H                    1.0000    -0.11211812     5.87332029    -8.22157428
  254 H                    1.0000    -0.87731812     6.33232029    -9.58857428
  255 O                    8.0000    -9.86391812     6.87432029     2.78542572
  256 H                    1.0000    -9.06491812     6.71632029     3.36542572
  257 H                    1.0000    -9.83091812     7.80432029     2.41942572
  258 O                    8.0000    -5.14391812    -2.41967971    -8.34857428
  259 H                    1.0000    -6.04091812    -1.97967971    -8.31057428
  260 H                    1.0000    -4.47491812    -1.85467971    -7.86457428
  261 O                    8.0000     2.15408188     2.16832029    -2.17457428
  262 H                    1.0000     3.08508188     2.31932029    -2.50857428
  263 H                    1.0000     2.14608188     2.22032029    -1.17657428
  264 O                    8.0000     8.45408188    -4.13667971    -5.47857428
  265 H                    1.0000     9.15608188    -4.09467971    -4.76857428
  266 H                    1.0000     7.77808188    -4.83367971    -5.23757428
  267 O                    8.0000     0.60208188    -2.54467971     7.96942572
  268 H                    1.0000     1.52308188    -2.92267971     7.87942572
  269 H                    1.0000     0.40458188    -2.37567971     8.93542572
  270 O                    8.0000     7.58708188     0.76432029     8.48842572
  271 H                    1.0000     7.49008188     1.39232029     9.26142572
  272 H                    1.0000     8.53108188     0.78532029     8.15842572
  273 O                    8.0000     2.08108188     7.14432029     1.50842572
  274 H                    1.0000     2.42608188     6.20532029     1.48742572
  275 H                    1.0000     2.29808188     7.55932029     2.39142572
  276 O                    8.0000     1.78008188    -8.42067971     7.09542572
  277 H                    1.0000     2.25108188    -7.79367971     7.71542572
  278 H                    1.0000     0.79368188    -8.36667971     7.25342572
  279 O                    8.0000     4.88808188     4.25132029     9.26042572
  280 H                    1.0000     4.64408188     5.05132029     8.71242572
  281 H                    1.0000     5.26408188     4.55032029    10.13742572
  282 O                    8.0000    -9.52591812    -8.42567971     7.38842572
  283 H                    1.0000    -9.97591812    -7.74567971     6.80942572
  284 H                    1.0000   -10.19991812    -9.10067971     7.69342572
  285 O                    8.0000    -2.85991812    -2.86167971     4.59842572
  286 H                    1.0000    -2.15791812    -2.20567971     4.87542572
  287 H                    1.0000    -3.29791812    -2.54667971     3.75742572
  288 O                    8.0000     0.23698188    -7.72267971    -8.66457428
  289 H                    1.0000     0.60788188    -6.87367971    -8.28957428
  290 H                    1.0000    -0.18201812    -7.53867971    -9.55457428
  291 O                    8.0000     1.58108188     8.77632029    -0.93157428
  292 H                    1.0000     2.25808188     8.36832029    -1.54357428
  293 H                    1.0000     1.62008188     8.32332029    -0.04157428
  294 O                    8.0000     5.66208188    -1.26697971     5.22442572
  295 H                    1.0000     6.23908188    -0.84967971     4.52342572
  296 H                    1.0000     6.18008188    -1.35117971     6.07642572
  297 O                    8.0000     2.19108188    -3.83667971    -4.49157428
  298 H                    1.0000     2.16908188    -3.58667971    -3.52357428
  299 H                    1.0000     2.37508188    -3.02167971    -5.04157428
  300 O                    8.0000    -9.43291812     4.79732029    -0.15987428
  301 H                    1.0000    -8.44791812     4.86932029    -0.31777428
  302 H                    1.0000    -9.86291812     4.33732029    -0.93757428
  303 O                    8.0000     9.72808188     3.49532029    -2.92757428
  304 H                    1.0000    10.04008188     4.34232029    -3.35957428
  305 H                    1.0000     8.80008188     3.28532029    -3.23557428
  306 O                    8.0000     8.70808188     9.42132029     2.18642572
  307 H                    1.0000     7.94708188     9.26732029     2.81742572
  308 H                    1.0000     9.54508188     9.58932029     2.70842572
  309 O                    8.0000     8.03808188    -7.60367971     1.19112572
  310 H                    1.0000     8.25908188    -8.54267971     1.45742572
  311 H                    1.0000     8.02708188    -7.53467971     0.19353572
  312 O                    8.0000    -0.95461812     0.80532029    -7.13157428
  313 H                    1.0000    -0.95001812     1.75532029    -7.44157428
  314 H                    1.0000    -1.51891812     0.72532029    -6.30957428
  315 O                    8.0000    -5.66391812     3.37632029    -5.66657428
  316 H                    1.0000    -5.20491812     4.24432029    -5.85557428
  317 H                    1.0000    -5.31891812     2.67432029    -6.28957428
  318 O                    8.0000     8.50008188     0.93732029    -5.02157428
  319 H                    1.0000     8.95908188     0.10572029    -4.70857428
  320 H                    1.0000     8.96108188     1.73732029    -4.63757428
  321 O                    8.0000    -7.79191812    -0.09117971     2.78842572
  322 H                    1.0000    -8.32391812     0.68732029     3.12242572
  323 H                    1.0000    -7.38291812    -0.57267971     3.56342572
  324 O                    8.0000     7.22108188     9.46332029    -8.97657428
  325 H                    1.0000     6.54808188     9.41232029    -9.71457428
  326 H                    1.0000     7.97708188    10.05732029    -9.25557428
  327 O                    8.0000     8.44908188    -5.05867971     7.22142572
  328 H                    1.0000     7.61608188    -4.58767971     6.93042572
  329 H                    1.0000     8.74708188    -4.69367971     8.10442572
  330 O                    8.0000     2.20708188     3.84032029    -8.98857428
  331 H                    1.0000     2.81908188     3.71932029    -9.77057428
  332 H                    1.0000     2.17808188     4.80632029    -8.73457428
  333 O                    8.0000     5.17608188     1.30132029     6.66742572
  334 H                    1.0000     5.13808188     0.54562029     6.01342572
  335 H                    1.0000     5.97508188     1.19132029     7.25742572
  336 O                    8.0000    -3.27591812     0.42552029    -1.36157428
  337 H                    1.0000    -3.59191812     0.86232029    -2.20357428
  338 H                    1.0000    -3.29891812    -0.56797971    -1.47257428
  339 O                    8.0000    -4.07391812     6.68932029     1.54042572
  340 H                    1.0000    -4.08291812     7.59132029     1.97342572
  341 H                    1.0000    -3.17991812     6.52932029     1.12222572
  342 O                    8.0000    -5.78491812    -6.19067971     3.82242572
  343 H                    1.0000    -5.65691812    -5.59367971     3.03142572
  344 H                    1.0000    -5.64691812    -5.66567971     4.66242572
  345 O                    8.0000    -1.43791812     5.05832029     4.70442572
  346 H                    1.0000    -1.41491812     6.05132029     4.81842572
  347 H                    1.0000    -0.50321812     4.70232029     4.70042572
  348 O                    8.0000    -6.85191812     9.35132029     2.92942572
  349 H                    1.0000    -6.24091812     8.85832029     2.31042572
  350 H                    1.0000    -6.70891812     9.02932029     3.86542572
  351 O                    8.0000     3.02408188     1.87032029     0.47912572
  352 H                    1.0000     2.25808188     1.57732029     1.05172572
  353 H                    1.0000     3.84808188     1.36932029     0.74382572
  354 O                    8.0000     3.04308188     2.15532029    -6.66857428
  355 H                    1.0000     3.03208188     2.81932029    -7.41657428
  356 H                    1.0000     3.56808188     2.52632029    -5.90257428
  357 O                    8.0000    -4.38591812    -7.43267971     7.61842572
  358 H                    1.0000    -3.93991812    -6.72367971     8.16442572
  359 H                    1.0000    -5.12591812    -7.02567971     7.08342572
  360 O                    8.0000     1.90608188     0.81832029     6.41542572
  361 H                    1.0000     2.56808188     0.23742029     5.94242572
  362 H                    1.0000     2.30508188     1.15132029     7.27042572
  363 O                    8.0000     8.60808188    -8.51367971    -4.86957428
  364 H                    1.0000     9.60208188    -8.59867971    -4.80257428
  365 H                    1.0000     8.17808188    -9.34267971    -4.51357428
  366 O                    8.0000     3.68508188     6.14032029    -5.62557428
  367 H                    1.0000     3.45808188     7.11432029    -5.63257428
  368 H                    1.0000     3.61008188     5.78732029    -4.69257428
  369 O                    8.0000     6.68908188    -1.72067971    -4.72357428
  370 H                    1.0000     7.34108188    -2.30367971    -5.20857428
  371 H                    1.0000     6.49308188    -0.90997971    -5.27557428
  372 O                    8.0000    -6.66491812    -9.37267971    -7.23957428
  373 H                    1.0000    -7.10091812    -8.72767971    -6.61257428
  374 H                    1.0000    -6.73891812    -9.02867971    -8.17557428
  375 O                    8.0000    -0.33871812     9.20032029    -3.01557428
  376 H                    1.0000     0.27838188     9.61432029    -2.34657428
  377 H                    1.0000    -0.81171812     9.91732029    -3.52357428
  378 O                    8.0000    -1.85491812     8.14832029     5.29042572
  379 H                    1.0000    -0.94681812     8.46832029     5.56142572
  380 H                    1.0000    -2.54791812     8.77732029     5.64442572
  381 O                    8.0000     3.91408188    -0.21257971    -1.71857428
  382 H                    1.0000     4.44008188     0.61592029    -1.91357428
  383 H                    1.0000     3.24008188    -0.01987971    -1.00557428
  384 O                    8.0000     5.50108188     4.22332029     2.25342572
  385 H                    1.0000     4.97108188     4.11332029     3.09442572
  386 H                    1.0000     6.47108188     4.30632029     2.47942572
  387 O                    8.0000     8.86108188    -5.04467971     0.35042572
  388 H                    1.0000     8.25208188    -5.83267971     0.44162572
  389 H                    1.0000     8.33208188    -4.20167971     0.43952572
  390 O                    8.0000    -1.26291812     6.84032029     0.58252572
  391 H                    1.0000    -0.45211812     7.10832029     1.10272572
  392 H                    1.0000    -1.45291812     7.52932029    -0.11697428
  393 O                    8.0000    -6.27191812     1.71132029     0.88262572
  394 H                    1.0000    -5.69691812     1.04532029     0.40722572
  395 H                    1.0000    -6.64191812     1.29832029     1.71542572
  396 O                    8.0000     8.22408188     3.04732029    -9.33757428
  397 H                    1.0000     8.79808188     3.32532029   -10.10757428
  398 H                    1.0000     8.39708188     3.65132029    -8.55957428
  399 O                    8.0000     1.18308188    -0.36516971    -3.80357428
  400 H                    1.0000     1.90508188    -0.45457971    -4.48857428
  401 H                    1.0000     1.55708188     0.05452029    -2.97657428
  402 O                    8.0000     1.10708188     6.17532029     4.69042572
  403 H                    1.0000     1.35108188     5.60332029     3.90742572
  404 H                    1.0000     1.86508188     6.18632029     5.34342572
  405 O                    8.0000     9.86008188     9.28232029    -9.44457428
  406 H                    1.0000     9.36708188     9.28432029   -10.31757428
  407 H                    1.0000    10.40008188    10.11732029    -9.36557428
  408 O                    8.0000     8.59508188    -7.04767971     4.92042572
  409 H                    1.0000     8.78808188    -6.41867971     4.16742572
  410 H                    1.0000     7.89108188    -6.65367971     5.51142572
  411 O                    8.0000    -3.88391812     4.43132029    -8.35657428
  412 H                    1.0000    -4.02391812     5.42132029    -8.31557428
  413 H                    1.0000    -3.08991812     4.23132029    -8.93157428
  414 O                    8.0000    -2.03491812    -4.86767971    -2.18857428
  415 H                    1.0000    -2.89791812    -5.37067971    -2.15257428
  416 H                    1.0000    -1.50791812    -5.16667971    -2.98457428
  417 O                    8.0000     7.76808188    -3.75067971     3.69442572
  418 H                    1.0000     7.27808188    -3.59267971     2.83642572
  419 H                    1.0000     8.46808188    -3.04667971     3.81242572
  420 O                    8.0000    -8.90691812    -5.63667971     2.79642572
  421 H                    1.0000    -8.19091812    -6.20567971     2.39242572
  422 H                    1.0000    -9.47091812    -5.24467971     2.06942572
  423 O                    8.0000     9.54008188    -4.54867971     9.81942572
  424 H                    1.0000    10.46008188    -4.27667971     9.53542572
  425 H                    1.0000     9.24908188    -3.98467971    10.59242572
  426 O                    8.0000    -3.86191812    -1.86167971    -3.58057428
  427 H                    1.0000    -3.37391812    -2.36867971    -4.29057428
  428 H                    1.0000    -4.84291812    -2.03567971    -3.66157428
  429 O                    8.0000    -0.46431812    -8.19367971    -4.72857428
  430 H                    1.0000     0.35698188    -7.62467971    -4.76857428
  431 H                    1.0000    -1.25891812    -7.65067971    -4.99957428
  432 O                    8.0000     5.71808188    -1.73167971     0.80782572
  433 H                    1.0000     6.64108188    -1.69067971     1.19062572
  434 H                    1.0000     5.67008188    -1.15737971    -0.00967428
  435 O                    8.0000     6.59308188    -4.04367971    -1.80457428
  436 H                    1.0000     6.24408188    -4.02167971    -0.86757428
  437 H                    1.0000     5.96908188    -3.54267971    -2.40457428
  438 O                    8.0000     7.11708188     5.06932029    -1.56657428
  439 H                    1.0000     6.18308188     5.31032029    -1.30457428
  440 H                    1.0000     7.75708188     5.42632029    -0.88657428
  441 O                    8.0000     8.47908188    -7.67167971    -7.46757428
  442 H                    1.0000     9.34608188    -7.46167971    -7.91857428
  443 H                    1.0000     8.61908188    -7.71467971    -6.47757428
  444 O                    8.0000    -7.74091812    -8.02767971     4.81842572
  445 H                    1.0000    -8.59891812    -8.01267971     4.30342572
  446 H                    1.0000    -7.10991812    -7.35267971     4.43442572
  447 O                    8.0000    -2.38991812    -7.62067971     0.41852572
  448 H                    1.0000    -3.02991812    -8.31767971     0.74102572
  449 H                    1.0000    -1.52391812    -7.70967971     0.91182572
  450 O                    8.0000     9.03908188    -2.38267971    -7.60157428
  451 H                    1.0000     9.43508188    -1.54067971    -7.23657428
  452 H                    1.0000     9.19208188    -3.13067971    -6.95457428
  453 O                    8.0000    -7.46591812    -5.94967971    -5.91657428
  454 H                    1.0000    -7.34791812    -5.33167971    -6.69457428
  455 H                    1.0000    -7.42091812    -5.42567971    -5.06557428
  456 O                    8.0000    -8.84291812     6.81232029     5.87442572
  457 H                    1.0000    -8.90491812     7.77932029     6.12342572
  458 H                    1.0000    -8.38691812     6.72532029     4.98842572
  459 O                    8.0000     5.45708188     8.72732029    -7.05357428
  460 H                    1.0000     6.22508188     8.94732029    -7.65457428
  461 H                    1.0000     5.80308188     8.44932029    -6.15757428
  462 O                    8.0000     4.25508188     4.15632029     5.28642572
  463 H                    1.0000     4.31108188     3.24232029     5.68742572
  464 H                    1.0000     5.03408188     4.70332029     5.59342572
  465 O                    8.0000    -7.12491812     3.38132029     3.65442572
  466 H                    1.0000    -6.15991812     3.15132029     3.78042572
  467 H                    1.0000    -7.26691812     4.34732029     3.86742572
  468 O                    8.0000    -9.18691812    -4.29567971     5.68442572
  469 H                    1.0000    -9.13591812    -4.51067971     4.70942572
  470 H                    1.0000    -9.89291812    -4.85767971     6.11342572
  471 O                    8.0000    -0.65681812    -0.90847971     5.59442572
  472 H                    1.0000     0.15088188    -1.30867971     6.02742572
  473 H                    1.0000    -0.57421812     0.08812029     5.59142572
  474 O                    8.0000    -4.49491812     2.74832029     3.37042572
  475 H                    1.0000    -4.38991812     1.84032029     2.96542572
  476 H                    1.0000    -3.95591812     3.40932029     2.84842572
  477 O                    8.0000     4.44908188     2.77132029    -4.21957428
  478 H                    1.0000     5.04208188     2.47332029    -3.47257428
  479 H                    1.0000     4.27708188     3.75332029    -4.13757428
  480 O                    8.0000     5.62808188    -8.69067971     2.60442572
  481 H                    1.0000     5.14708188    -8.14667971     3.29242572
  482 H                    1.0000     6.42608188    -8.18467971     2.27842572
  483 O                    8.0000    -9.47191812    -1.53867971    -4.39457428
  484 H                    1.0000    -8.62391812    -1.10987971    -4.70457428
  485 H                    1.0000    -9.33991812    -1.91467971    -3.47757428
  486 O                    8.0000    -3.87091812     1.74432029    -7.12057428
  487 H                    1.0000    -3.45591812     2.64232029    -7.26757428
  488 H                    1.0000    -3.71791812     1.45732029    -6.17457428
  489 O                    8.0000    -6.79391812     4.83032029     6.82042572
  490 H                    1.0000    -6.73291812     5.54232029     6.12142572
  491 H                    1.0000    -6.62891812     5.23132029     7.72142572
  492 O                    8.0000    -0.16581812     8.98932029    -9.45057428
  493 H                    1.0000     0.80668188     9.06132029    -9.22857428
  494 H                    1.0000    -0.66341812     9.73732029    -9.01057428
  495 O                    8.0000     4.69008188     5.82432029    -0.13707428
  496 H                    1.0000     4.67508188     5.23532029     0.67122572
  497 H                    1.0000     4.92908188     6.75632029     0.13410572
  498 O                    8.0000    -3.44091812    -0.24167971     1.41742572
  499 H                    1.0000    -2.75191812    -0.20397971     0.69352572
  500 H                    1.0000    -4.32691812    -0.48607971     1.02172572
  501 O                    8.0000    -0.59561812    -4.66867971     5.64042572
  502 H                    1.0000    -1.56591812    -4.42567971     5.63242572
  503 H                    1.0000    -0.30261812    -4.83667971     6.58142572
  504 O                    8.0000    -8.41191812    -7.53067971    -3.91557428
  505 H                    1.0000    -8.46491812    -6.97967971    -3.08257428
  506 H                    1.0000    -8.31891812    -6.92767971    -4.70857428
  507 O                    8.0000     0.31598188    -2.93067971    -9.06957428
  508 H                    1.0000     1.26208188    -3.23867971    -8.96957428
  509 H                    1.0000     0.08284188    -2.31967971    -8.31357428
  510 O                    8.0000    -4.73091812    -4.59167971     6.22942572
  511 H                    1.0000    -4.13591812    -3.88467971     5.84642572
  512 H                    1.0000    -5.30091812    -4.19467971     6.94842572
  513 O                    8.0000     5.71908188     9.07632029     0.34192572
  514 H                    1.0000     6.59408188     8.61032029     0.48112572
  515 H                    1.0000     5.47408188     9.57832029     1.17072572
  516 O                    8.0000    -2.05891812    -5.63367971    -5.29957428
  517 H                    1.0000    -1.42591812    -5.43567971    -6.04857428
  518 H                    1.0000    -2.83791812    -5.00867971    -5.34857428
  519 O                    8.0000     4.29408188    -9.13167971     5.68142572
  520 H                    1.0000     3.32008188    -9.06867971     5.89842572
  521 H                    1.0000     4.83208188    -8.87267971     6.48342572
  522 O                    8.0000     7.89808188     6.86532029     9.42542572
  523 H                    1.0000     8.58908188     6.18332029     9.18842572
  524 H                    1.0000     8.27008188     7.49532029    10.10742572
  525 O                    8.0000    -1.61091812     0.15312029     9.12542572
  526 H                    1.0000    -2.25091812     0.72032029     9.64442572
  527 H                    1.0000    -0.71461812     0.59622029     9.10342572
  528 O                    8.0000     6.81908188    -6.41167971    -4.83357428
  529 H                    1.0000     5.91108188    -6.79967971    -4.99457428
  530 H                    1.0000     7.51608188    -7.09767971    -5.04257428
  531 O                    8.0000     1.10908188    -5.82167971    -6.50757428
  532 H                    1.0000     1.69708188    -6.60167971    -6.29557428
  533 H                    1.0000     1.45408188    -5.00667971    -6.04157428
  534 O                    8.0000     2.74508188     8.96632029    -4.47857428
  535 H                    1.0000     1.90008188     8.44232029    -4.37457428
  536 H                    1.0000     3.41308188     8.65932029    -3.80157428
  537 O                    8.0000     5.36308188     7.02932029     3.68342572
  538 H                    1.0000     4.98308188     6.11832029     3.84442572
  539 H                    1.0000     6.35608188     7.00232029     3.80042572
  540 O                    8.0000    -2.81291812    -6.17567971     3.69942572
  541 H                    1.0000    -2.91491812    -5.35067971     4.25542572
  542 H                    1.0000    -2.84691812    -5.93067971     2.73042572
  543 O                    8.0000     5.85108188     0.85832029    -5.97657428
  544 H                    1.0000     6.74208188     1.28332029    -6.13557428
  545 H                    1.0000     5.24708188     1.51032029    -5.51957428
  546 O                    8.0000     5.15808188    -2.76367971    -7.70657428
  547 H                    1.0000     5.80908188    -2.82767971    -8.46357428
  548 H                    1.0000     5.39008188    -1.97867971    -7.13257428
  549 O                    8.0000    -6.84891812     9.08132029     5.69342572
  550 H                    1.0000    -6.99791812     8.89332029     6.66442572
  551 H                    1.0000    -6.98291812    10.05732029     5.51842572
  552 O                    8.0000     1.21408188    -5.22067971     8.71042572
  553 H                    1.0000     0.32998188    -5.09567971     9.16042572
  554 H                    1.0000     1.93508188    -4.82067971     9.27642572
  555 O                    8.0000    -7.15591812    -9.80267971     8.35642572
  556 H                    1.0000    -6.35791812    -9.44267971     8.83942572
  557 H                    1.0000    -7.67991812    -9.04467971     7.96742572
  558 O                    8.0000    -0.71051812     1.93332029     0.49612572
  559 H                    1.0000    -0.88971812     2.37932029     1.37342572
  560 H                    1.0000    -0.66301812     2.62432029    -0.22527428
  561 O                    8.0000     3.42108188     5.31132029    -2.60457428
  562 H                    1.0000     3.70608188     5.62932029    -1.70057428
  563 H                    1.0000     2.44208188     5.47732029    -2.72257428
  564 O                    8.0000    -8.79391812    -6.47167971    -0.75037428
  565 H                    1.0000    -8.36791812    -7.21267971    -0.23187428
  566 H                    1.0000    -9.56191812    -6.09867971    -0.22907428
  567 O                    8.0000    -2.23491812    -7.93967971    -2.52557428
  568 H                    1.0000    -2.01291812    -7.92267971    -1.55057428
  569 H                    1.0000    -1.55491812    -7.41067971    -3.03157428
  570 O                    8.0000     2.43308188    -3.98967971     1.07122572
  571 H                    1.0000     1.52008188    -4.00367971     0.66422572
  572 H                    1.0000     2.51108188    -4.72867971     1.74042572
  573 O                    8.0000    -8.02991812     5.72932029    -5.53357428
  574 H                    1.0000    -8.08091812     6.28032029    -6.36657428
  575 H                    1.0000    -7.31491812     5.03732029    -5.63457428
  576 O                    8.0000     5.84408188    -6.38867971     5.35542572
  577 H                    1.0000     4.85308188    -6.30067971     5.45142572
  578 H                    1.0000     6.15108188    -5.86067971     4.56442572
  579 O                    8.0000    -9.20091812     2.06232029     8.15842572
  580 H                    1.0000    -8.26291812     1.76232029     8.33242572
  581 H                    1.0000    -9.20591812     3.04232029     7.95942572
  582 O                    8.0000    -6.03491812    -9.31067971    -2.92057428
  583 H                    1.0000    -6.23391812   -10.28867971    -2.98957428
  584 H                    1.0000    -6.42691812    -8.83367971    -3.70757428
  585 O                    8.0000     4.39908188    -3.72067971     4.44842572
  586 H                    1.0000     4.28308188    -4.09467971     5.36842572
  587 H                    1.0000     5.15408188    -3.06567971     4.44742572
  588 O                    8.0000     8.76808188     4.97832029    -7.65857428
  589 H                    1.0000     9.36908188     5.24032029    -8.41357428
  590 H                    1.0000     8.70408188     5.73432029    -7.00757428
  591 O                    8.0000     7.89308188     0.29062029    -1.96457428
  592 H                    1.0000     7.18008188     0.07122029    -2.63057428
  593 H                    1.0000     8.56908188    -0.44595971    -1.94557428
  594 O                    8.0000     4.36608188    -5.22767971    -6.43857428
  595 H                    1.0000     4.54808188    -4.24467971    -6.47457428
  596 H                    1.0000     3.76708188    -5.42667971    -5.66357428
  597 O                    8.0000     8.25108188     4.03432029     2.95542572
  598 H                    1.0000     9.07308188     3.56032029     2.63942572
  599 H                    1.0000     8.38908188     5.02232029     2.88642572
  600 O                    8.0000     8.47808188    -1.77567971     6.95442572
  601 H                    1.0000     9.07408188    -2.19067971     6.26742572
  602 H                    1.0000     8.96608188    -1.03277971     7.41342572
  603 O                    8.0000     7.27008188    -9.52067971     4.88642572
  604 H                    1.0000     7.85308188    -8.77867971     5.21742572
  605 H                    1.0000     6.46908188    -9.13567971     4.42742572
  606 O                    8.0000    -0.50471812     2.79132029    -8.97557428
  607 H                    1.0000    -0.35101812     3.76432029    -8.79757428
  608 H                    1.0000     0.36268188     2.29932029    -8.90457428
  609 O                    8.0000    -7.67891812    -3.92967971    -3.55757428
  610 H                    1.0000    -8.53391812    -4.13067971    -3.07957428
  611 H                    1.0000    -6.93991812    -3.83167971    -2.89057428
  612 O                    8.0000    -5.07391812    -3.86567971    -5.68257428
  613 H                    1.0000    -4.69591812    -3.60767971    -6.57157428
  614 H                    1.0000    -5.98991812    -4.24667971    -5.80757428
  615 O                    8.0000     3.46008188     6.62832029    -9.12657428
  616 H                    1.0000     2.68408188     7.17332029    -8.81057428
  617 H                    1.0000     4.07908188     6.45332029    -8.36057428
  618 O                    8.0000     2.98508188     6.52032029     7.00342572
  619 H                    1.0000     2.75308188     5.93532029     7.78042572
  620 H                    1.0000     3.85308188     6.22032029     6.60742572
  621 O                    8.0000    -4.97291812    -5.65167971     0.74622572
  622 H                    1.0000    -4.12091812    -6.00367971     0.35872572
  623 H                    1.0000    -5.33391812    -4.92967971     0.15559572
  624 O                    8.0000     6.46908188    -3.97567971     8.83342572
  625 H                    1.0000     7.16508188    -3.25767971     8.83642572
  626 H                    1.0000     6.77108188    -4.73467971     9.41142572
  627 O                    8.0000    -1.25991812    -2.08767971    -5.04557428
  628 H                    1.0000    -0.40321812    -2.56267971    -4.84357428
  629 H                    1.0000    -1.22891812    -1.16647971    -4.65657428
  630 O                    8.0000     3.00308188    -4.23267971    -9.13857428
  631 H                    1.0000     3.19208188    -4.63867971    -8.24457428
  632 H                    1.0000     3.83008188    -3.78967971    -9.48457428
  633 O                    8.0000     3.65508188    -1.32987971    -5.30957428
  634 H                    1.0000     3.83208188    -0.63047971    -6.00157428
  635 H                    1.0000     4.39208188    -1.32427971    -4.63357428
  636 O                    8.0000     8.63608188    -1.78867971     1.37042572
  637 H                    1.0000     9.41108188    -2.01367971     0.77932572
  638 H                    1.0000     8.44008188    -0.81067971     1.30542572
  639 O                    8.0000    -2.58891812     3.82532029    -3.04757428
  640 H                    1.0000    -2.82491812     4.04232029    -2.10057428
  641 H                    1.0000    -2.88591812     4.57132029    -3.64357428
  642 O                    8.0000     7.63208188     0.84732029     3.94042572
  643 H                    1.0000     7.89908188     1.41932029     3.16442572
  644 H                    1.0000     8.44408188     0.41102029     4.32842572
  645 O                    8.0000     0.50338188     9.38232029    -6.09757428
  646 H                    1.0000     0.60008188     9.91732029    -5.26057428
  647 H                    1.0000     0.15668188     9.96732029    -6.83157428
  648 O                    8.0000     3.84208188    -7.54267971    -0.85157428
  649 H                    1.0000     4.28608188    -8.34667971    -0.45527428
  650 H                    1.0000     3.87808188    -6.78667971    -0.19797428
  651 O                    8.0000    -2.12091812     7.63732029    -6.14757428
  652 H                    1.0000    -1.18491812     7.84832029    -6.42957428
  653 H                    1.0000    -2.13891812     7.46132029    -5.16257428
  654 O                    8.0000    -8.53591812     1.24532029    -1.38457428
  655 H                    1.0000    -8.70991812     2.00832029    -2.00757428
  656 H                    1.0000    -8.51891812     1.58132029    -0.44317428
  657 O                    8.0000     2.33808188    -0.96757971     0.61102572
  658 H                    1.0000     2.52108188    -1.93667971     0.78002572
  659 H                    1.0000     2.91708188    -0.41058971     1.20682572
  660 O                    8.0000    -4.66191812     6.35632029     5.35242572
  661 H                    1.0000    -3.75891812     6.78632029     5.37942572
  662 H                    1.0000    -4.57791812     5.38932029     5.59042572
  663 O                    8.0000    -6.54391812    -0.49117971    -2.43557428
  664 H                    1.0000    -7.20391812     0.23162029    -2.64257428
  665 H                    1.0000    -5.63791812    -0.21577971    -2.75457428
  666 O                    8.0000    -6.62791812     7.97132029    -3.95157428
  667 H                    1.0000    -6.60191812     7.92332029    -2.95257428
  668 H                    1.0000    -7.35091812     7.37132029    -4.29557428
  669 O                    8.0000    -5.27391812     8.87332029     0.24760572
  670 H                    1.0000    -5.20891812     7.87832029     0.31847572
  671 H                    1.0000    -4.43791812     9.28932029     0.60532572
  672 O                    8.0000     3.14108188     1.63932029     8.84342572
  673 H                    1.0000     4.05108188     1.83232029     8.47842572
  674 H                    1.0000     3.20408188     0.91332029     9.52842572
  675 O                    8.0000    -3.40591812     3.33032029    -0.36557428
  676 H                    1.0000    -2.90191812     3.58032029     0.46162572
  677 H                    1.0000    -3.35291812     2.34132029    -0.50227428
  678 O                    8.0000     4.59208188     8.52332029    -2.25357428
  679 H                    1.0000     5.25808188     8.87432029    -2.91157428
  680 H                    1.0000     4.93908188     8.65632029    -1.32457428
  681 O                    8.0000    -2.59791812     9.19032029    -0.86557428
  682 H                    1.0000    -1.94191812     9.90732029    -1.11557428
  683 H                    1.0000    -3.26991812     9.08432029    -1.59757428
  684 O                    8.0000     0.25318188     8.97232029     2.66642572
  685 H                    1.0000     0.22848188     8.79932029     3.65042572
  686 H                    1.0000     1.20408188     9.02432029     2.36042572
  687 O                    8.0000    -1.01491812    -8.21767971     4.41042572
  688 H                    1.0000    -1.88491812    -8.67167971     4.21742572
  689 H                    1.0000    -1.12691812    -7.22867971     4.31342572
  690 O                    8.0000    -3.97691812     6.75232029    -1.50157428
  691 H                    1.0000    -4.78191812     6.16432029    -1.58257428
  692 H                    1.0000    -3.88891812     7.06832029    -0.55677428
  693 O                    8.0000    -6.43991812     1.83432029     6.39942572
  694 H                    1.0000    -6.73991812     2.77932029     6.53242572
  695 H                    1.0000    -5.45291812     1.81832029     6.23942572
  696 O                    8.0000    -1.94391812     4.15232029     1.84742572
  697 H                    1.0000    -1.40391812     4.78732029     1.29442572
  698 H                    1.0000    -1.82991812     4.37332029     2.81542572
  699 O                    8.0000     8.94008188     7.43432029    -5.75957428
  700 H                    1.0000     9.48208188     7.09632029    -4.99057428
  701 H                    1.0000     9.54808188     7.82532029    -6.45057428
  702 O                    8.0000    -8.08691812    -2.85767971     1.73442572
  703 H                    1.0000    -8.50191812    -3.40367971     2.46242572
  704 H                    1.0000    -7.94791812    -1.92167971     2.05842572
  705 O                    8.0000    -9.48591812    -1.43667971    -1.29057428
  706 H                    1.0000    -9.05191812    -0.54067971    -1.38157428
  707 H                    1.0000    -8.78891812    -2.12667971    -1.09757428
  708 O                    8.0000     0.82518188    -6.76567971    -1.53657428
  709 H                    1.0000     1.62008188    -7.10667971    -2.03857428
  710 H                    1.0000     0.64548188    -7.36067971    -0.75357428
  711 O                    8.0000     1.38508188     3.17032029     4.87242572
  712 H                    1.0000     1.66408188     2.92432029     5.80142572
  713 H                    1.0000     1.69308188     2.46532029     4.23442572
  714 O                    8.0000    -6.69491812    -0.11447971     8.46842572
  715 H                    1.0000    -6.44991812     0.17812029     7.54342572
  716 H                    1.0000    -5.96491812     0.13882029     9.10242572
  717 O                    8.0000    -4.36391812     1.39032029     9.95742572
  718 H                    1.0000    -4.00391812     2.21832029     9.52642572
  719 H                    1.0000    -4.19391812     1.42732029    10.94242572
  720 O                    8.0000    -1.34791812     0.73032029    -4.14957428
  721 H                    1.0000    -0.50291812     0.43792029    -3.70157428
  722 H                    1.0000    -1.88991812     1.27932029    -3.51257428
  723 O                    8.0000     7.73508188     1.08032029     0.78132572
  724 H                    1.0000     7.42308188     1.04732029    -0.16847428
  725 H                    1.0000     8.27708188     1.90732029     0.92622572
  726 O                    8.0000    -9.58291812   -10.10667971    -2.28857428
  727 H                    1.0000    -8.94691812   -10.71267971    -1.80657428
  728 H                    1.0000    -9.14091812    -9.22567971    -2.45957428
  729 O                    8.0000    -2.40591812    -5.25867971     8.03942572
  730 H                    1.0000    -3.23091812    -4.87567971     7.62342572
  731 H                    1.0000    -2.47091812    -5.18967971     9.03442572
  732 O                    8.0000    -2.75791812    -1.30947971    -7.71457428
  733 H                    1.0000    -2.75391812    -0.31734971    -7.84057428
  734 H                    1.0000    -2.04391812    -1.56567971    -7.06357428
  735 O                    8.0000     6.29908188    -5.91967971    -8.47157428
  736 H                    1.0000     7.11008188    -6.46767971    -8.26557428
  737 H                    1.0000     5.94608188    -5.51667971    -7.62757428
  738 O                    8.0000    -3.57991812   -10.10867971     7.75042572
  739 H                    1.0000    -3.53691812   -10.65267971     8.58842572
  740 H                    1.0000    -3.89491812    -9.18567971     7.96942572
  741 O                    8.0000     5.56508188     2.45432029    -1.55257428
  742 H                    1.0000     6.09308188     3.29832029    -1.64957428
  743 H                    1.0000     4.92808188     2.54532029    -0.78757428
  744 O                    8.0000    -9.17791812     1.72332029     5.09542572
  745 H                    1.0000    -8.24791812     2.07832029     5.00442572
  746 H                    1.0000    -9.57791812     2.05232029     5.95142572
  747 O                    8.0000     4.90908188    -8.82267971     9.02042572
  748 H                    1.0000     3.97408188    -8.72067971     9.35942572
  749 H                    1.0000     5.39508188    -7.95367971     9.11442572
  750 O                    8.0000     1.67508188    -2.81267971     4.48842572
  751 H                    1.0000     2.66008188    -2.97367971     4.56142572
  752 H                    1.0000     1.18408188    -3.52467971     4.98942572
  753 O                    8.0000    -4.79691812    -6.78867971    -2.00657428
  754 H                    1.0000    -4.15091812    -7.52167971    -2.21757428
  755 H                    1.0000    -5.47191812    -7.11867971    -1.34657428
  756 O                    8.0000     0.58028188     3.05332029    -4.31257428
  757 H                    1.0000     0.69178188     2.48632029    -5.12857428
  758 H                    1.0000     0.92658188     2.56032029    -3.51457428
  759 O                    8.0000     1.96608188     1.05932029     3.16342572
  760 H                    1.0000     2.66108188     0.65232029     3.75542572
  761 H                    1.0000     1.21008188     0.41602029     3.04442572
  762 O                    8.0000    -8.84191812     2.81932029    -7.42857428
  763 H                    1.0000    -9.53491812     3.51632029    -7.61157428
  764 H                    1.0000    -7.98991812     3.06732029    -7.88957428
  765 O                    8.0000     5.55008188     1.38432029    -8.82857428
  766 H                    1.0000     5.83108188     1.02132029    -7.94057428
  767 H                    1.0000     6.32108188     1.85932029    -9.25357428
  768 O                    8.0000     6.38508188     7.67432029    -4.49757428
  769 H                    1.0000     6.55708188     7.69732029    -3.51257428
  770 H                    1.0000     7.23208188     7.44632029    -4.97757428
  771 O                    8.0000    -3.15591812    -3.17467971     0.75202572
  772 H                    1.0000    -2.48391812    -2.57667971     1.19012572
  773 H                    1.0000    -4.05191812    -2.73067971     0.75842572
 
 
                                    Velocities
                                    ----------
  No.       Tag          Charge          X              Y              Z
 ---- ---------------- ---------- -------------- -------------- --------------
    1 C                    6.0000     0.00000001    -0.00000001     0.00000002
    2 H                    1.0000     0.00000001    -0.00000001     0.00000002
    3 H                    1.0000     0.00000001    -0.00000001     0.00000002
    4 H                    1.0000     0.00000001    -0.00000001     0.00000002
    5 H                    1.0000     0.00000001    -0.00000001     0.00000002
    6 O                    8.0000    -0.00034091    -0.00009105     0.00004618
    7 H                    1.0000    -0.00084187     0.00074247    -0.00057334
    8 H                    1.0000    -0.00014687    -0.00011295    -0.00045297
    9 O                    8.0000    -0.00013748     0.00023829    -0.00012508
   10 H                    1.0000    -0.00027420     0.00043010    -0.00060528
   11 H                    1.0000    -0.00041234     0.00027042    -0.00017380
   12 O                    8.0000    -0.00007769     0.00008585    -0.00035395
   13 H                    1.0000    -0.00043161     0.00016100    -0.00022866
   14 H                    1.0000     0.00044106    -0.00004539    -0.00090745
   15 O                    8.0000     0.00004976    -0.00005643     0.00036075
   16 H                    1.0000    -0.00012841     0.00023754    -0.00037700
   17 H                    1.0000    -0.00119468    -0.00003891     0.00030217
   18 O                    8.0000    -0.00007058    -0.00019974    -0.00011741
   19 H                    1.0000    -0.00037020    -0.00013084    -0.00062474
   20 H                    1.0000    -0.00006376    -0.00005828    -0.00032636
   21 O                    8.0000     0.00044919     0.00035961    -0.00007039
   22 H                    1.0000     0.00046771    -0.00000026     0.00071658
   23 H                    1.0000     0.00017314    -0.00008462    -0.00023263
   24 O                    8.0000     0.00005941     0.00002249    -0.00003203
   25 H                    1.0000     0.00018714    -0.00106051     0.00023338
   26 H                    1.0000     0.00095507     0.00071677     0.00068635
   27 O                    8.0000     0.00012655     0.00010516     0.00036094
   28 H                    1.0000     0.00013789    -0.00021845     0.00025738
   29 H                    1.0000     0.00010594     0.00012741     0.00068654
   30 O                    8.0000     0.00052459    -0.00028610    -0.00022053
   31 H                    1.0000    -0.00018992    -0.00016611     0.00090480
   32 H                    1.0000    -0.00069145    -0.00091557    -0.00022412
   33 O                    8.0000    -0.00000719     0.00010785     0.00000553
   34 H                    1.0000     0.00073359    -0.00041442     0.00014904
   35 H                    1.0000    -0.00035621    -0.00026513     0.00075381
   36 O                    8.0000     0.00010516     0.00004258    -0.00033637
   37 H                    1.0000     0.00001922     0.00010050    -0.00061737
   38 H                    1.0000    -0.00102348    -0.00019162     0.00083129
   39 O                    8.0000     0.00016477    -0.00006846     0.00035489
   40 H                    1.0000     0.00043105     0.00068937    -0.00020787
   41 H                    1.0000     0.00065611    -0.00036245     0.00005684
   42 O                    8.0000     0.00007907     0.00063816    -0.00034261
   43 H                    1.0000    -0.00045353     0.00032182    -0.00058846
   44 H                    1.0000    -0.00049171    -0.00056503    -0.00079709
   45 O                    8.0000     0.00040213     0.00016864     0.00035961
   46 H                    1.0000     0.00055520    -0.00003496     0.00027307
   47 H                    1.0000     0.00024566     0.00034884     0.00151367
   48 O                    8.0000     0.00046827     0.00020088    -0.00001462
   49 H                    1.0000     0.00060415    -0.00008916    -0.00000790
   50 H                    1.0000     0.00002383     0.00106826    -0.00017690
   51 O                    8.0000    -0.00020012    -0.00031369    -0.00001516
   52 H                    1.0000     0.00018109    -0.00033032     0.00021940
   53 H                    1.0000     0.00064383    -0.00066840     0.00051797
   54 O                    8.0000     0.00001659     0.00010099    -0.00013154
   55 H                    1.0000     0.00048698    -0.00027817     0.00007670
   56 H                    1.0000     0.00081825    -0.00022185    -0.00047262
   57 O                    8.0000     0.00005467     0.00001740     0.00002457
   58 H                    1.0000     0.00105163    -0.00049227     0.00025927
   59 H                    1.0000     0.00069088     0.00011756    -0.00062172
   60 O                    8.0000    -0.00006589    -0.00037549    -0.00012329
   61 H                    1.0000    -0.00029158    -0.00058449    -0.00001362
   62 H                    1.0000    -0.00088345    -0.00015634    -0.00028592
   63 O                    8.0000     0.00000356    -0.00000446    -0.00008288
   64 H                    1.0000    -0.00043861    -0.00058449     0.00012504
   65 H                    1.0000    -0.00069145    -0.00083828     0.00018859
   66 O                    8.0000    -0.00020201     0.00022544     0.00024869
   67 H                    1.0000    -0.00039287     0.00038588    -0.00021807
   68 H                    1.0000     0.00033524    -0.00033410     0.00202012
   69 O                    8.0000     0.00006962     0.00017888    -0.00047205
   70 H                    1.0000    -0.00004479    -0.00149666    -0.00041820
   71 H                    1.0000     0.00111853    -0.00035621     0.00020900
   72 O                    8.0000     0.00035943     0.00004055    -0.00047546
   73 H                    1.0000    -0.00031029     0.00044144    -0.00040119
   74 H                    1.0000    -0.00083564    -0.00001503    -0.00093768
   75 O                    8.0000    -0.00011563     0.00028818     0.00009666
   76 H                    1.0000     0.00059205    -0.00104577     0.00047980
   77 H                    1.0000    -0.00152539    -0.00034525     0.00063703
   78 O                    8.0000     0.00029140    -0.00007372    -0.00000527
   79 H                    1.0000     0.00008819     0.00005962     0.00042443
   80 H                    1.0000    -0.00030557     0.00002328     0.00064194
   81 O                    8.0000     0.00000359     0.00004267     0.00006973
   82 H                    1.0000     0.00007345    -0.00003757     0.00011684
   83 H                    1.0000     0.00039873    -0.00017722     0.00025795
   84 O                    8.0000     0.00002572    -0.00016989    -0.00006811
   85 H                    1.0000     0.00038399     0.00029102    -0.00045996
   86 H                    1.0000    -0.00035319     0.00084868    -0.00051155
   87 O                    8.0000    -0.00018512     0.00029140     0.00023962
   88 H                    1.0000     0.00007464    -0.00190106    -0.00068918
   89 H                    1.0000     0.00035508    -0.00163820    -0.00039533
   90 O                    8.0000     0.00025700     0.00007795    -0.00004059
   91 H                    1.0000    -0.00010082     0.00008800     0.00081674
   92 H                    1.0000     0.00011178     0.00013449    -0.00069920
   93 O                    8.0000    -0.00003279     0.00011593     0.00014623
   94 H                    1.0000     0.00125383    -0.00052440    -0.00049738
   95 H                    1.0000     0.00049076     0.00019748     0.00088288
   96 O                    8.0000     0.00003390     0.00004607    -0.00017170
   97 H                    1.0000    -0.00009641     0.00008778    -0.00000227
   98 H                    1.0000    -0.00063306     0.00000484    -0.00036793
   99 O                    8.0000    -0.00012531    -0.00010836    -0.00010348
  100 H                    1.0000    -0.00047697     0.00013782     0.00032428
  101 H                    1.0000    -0.00071356    -0.00000987    -0.00061416
  102 O                    8.0000    -0.00019521     0.00021581    -0.00017743
  103 H                    1.0000     0.00038456    -0.00068484    -0.00141314
  104 H                    1.0000    -0.00011391    -0.00141918     0.00003774
  105 O                    8.0000     0.00006331    -0.00036869     0.00006537
  106 H                    1.0000     0.00148967     0.00005025     0.00002326
  107 H                    1.0000    -0.00020447    -0.00010590    -0.00002126
  108 O                    8.0000    -0.00003320     0.00020050    -0.00003146
  109 H                    1.0000     0.00191429    -0.00165257    -0.00021845
  110 H                    1.0000     0.00121528     0.00072943    -0.00039250
  111 O                    8.0000    -0.00005505    -0.00013143    -0.00010879
  112 H                    1.0000     0.00068295    -0.00009878    -0.00000555
  113 H                    1.0000    -0.00002207     0.00023338     0.00029839
  114 O                    8.0000     0.00011614    -0.00006480     0.00032881
  115 H                    1.0000    -0.00009902     0.00052005     0.00009462
  116 H                    1.0000     0.00067236    -0.00030916    -0.00029045
  117 O                    8.0000    -0.00027987     0.00008995    -0.00023300
  118 H                    1.0000    -0.00072414    -0.00052837    -0.00049019
  119 H                    1.0000    -0.00021297     0.00060188    -0.00083224
  120 O                    8.0000     0.00021429     0.00003946     0.00016014
  121 H                    1.0000     0.00060887     0.00010611     0.00011862
  122 H                    1.0000    -0.00030803     0.00035432     0.00100401
  123 O                    8.0000     0.00006340     0.00003978    -0.00011750
  124 H                    1.0000     0.00016172    -0.00027647     0.00064043
  125 H                    1.0000    -0.00113025    -0.00024774    -0.00004528
  126 O                    8.0000     0.00031445     0.00000826    -0.00022015
  127 H                    1.0000    -0.00044390     0.00110814    -0.00053630
  128 H                    1.0000     0.00075495     0.00094543    -0.00001062
  129 O                    8.0000     0.00011616    -0.00005558    -0.00055123
  130 H                    1.0000    -0.00072471     0.00033939     0.00026910
  131 H                    1.0000     0.00075816     0.00042953     0.00050040
  132 O                    8.0000     0.00016040    -0.00018516    -0.00042689
  133 H                    1.0000     0.00093730    -0.00028837    -0.00009271
  134 H                    1.0000     0.00032541    -0.00089233     0.00040270
  135 O                    8.0000    -0.00036566    -0.00004902    -0.00007134
  136 H                    1.0000    -0.00099589     0.00202768     0.00087305
  137 H                    1.0000     0.00110927     0.00100363    -0.00017635
  138 O                    8.0000     0.00004719    -0.00023584    -0.00032484
  139 H                    1.0000     0.00067992    -0.00064723    -0.00040686
  140 H                    1.0000     0.00055766    -0.00052421    -0.00024774
  141 O                    8.0000    -0.00010603     0.00019143     0.00012514
  142 H                    1.0000     0.00028233     0.00083280    -0.00003428
  143 H                    1.0000    -0.00000031     0.00032636     0.00006909
  144 O                    8.0000    -0.00007221     0.00014145    -0.00012502
  145 H                    1.0000    -0.00072017     0.00034128     0.00093730
  146 H                    1.0000     0.00062172    -0.00011216    -0.00130183
  147 O                    8.0000     0.00023244     0.00011010    -0.00003290
  148 H                    1.0000    -0.00003916    -0.00017639     0.00034336
  149 H                    1.0000     0.00039817     0.00058978     0.00038966
  150 O                    8.0000     0.00012463     0.00014494     0.00045146
  151 H                    1.0000     0.00072339     0.00039892    -0.00029971
  152 H                    1.0000    -0.00050720    -0.00011408     0.00019823
  153 O                    8.0000     0.00015554    -0.00004730     0.00025606
  154 H                    1.0000     0.00003698    -0.00037587     0.00019219
  155 H                    1.0000     0.00075249    -0.00017777    -0.00013925
  156 O                    8.0000    -0.00030746    -0.00021940    -0.00034053
  157 H                    1.0000    -0.00078424     0.00007546    -0.00093655
  158 H                    1.0000     0.00045221    -0.00047319     0.00013532
  159 O                    8.0000     0.00011603     0.00014424     0.00032484
  160 H                    1.0000     0.00045051    -0.00027987     0.00026853
  161 H                    1.0000     0.00017833     0.00033278    -0.00024491
  162 O                    8.0000     0.00027193    -0.00002079     0.00030954
  163 H                    1.0000     0.00120508    -0.00043690     0.00065687
  164 H                    1.0000    -0.00047016    -0.00000518     0.00037209
  165 O                    8.0000     0.00000924     0.00020749     0.00032825
  166 H                    1.0000    -0.00096603     0.00033070     0.00204090
  167 H                    1.0000    -0.00066896     0.00100137    -0.00020012
  168 O                    8.0000    -0.00003012     0.00008489    -0.00043766
  169 H                    1.0000     0.00110795     0.00039363    -0.00053687
  170 H                    1.0000    -0.00105673     0.00162120    -0.00020919
  171 O                    8.0000     0.00004403    -0.00041933    -0.00020522
  172 H                    1.0000    -0.00141370    -0.00061133     0.00022223
  173 H                    1.0000     0.00048358     0.00030935     0.00021751
  174 O                    8.0000    -0.00004976     0.00029291     0.00028251
  175 H                    1.0000    -0.00034733     0.00114971     0.00094940
  176 H                    1.0000    -0.00045807     0.00016841    -0.00025587
  177 O                    8.0000    -0.00021165    -0.00003868    -0.00000248
  178 H                    1.0000    -0.00086795     0.00016093     0.00084886
  179 H                    1.0000    -0.00046884     0.00005822     0.00124835
  180 O                    8.0000    -0.00018085    -0.00005225     0.00012349
  181 H                    1.0000     0.00030992     0.00020692     0.00196154
  182 H                    1.0000    -0.00100609     0.00055123    -0.00041158
  183 O                    8.0000    -0.00010418     0.00013281    -0.00001510
  184 H                    1.0000     0.00000560    -0.00017548    -0.00045807
  185 H                    1.0000     0.00039646    -0.00003872    -0.00001535
[...]
    -0.3266032E+00 (   0.000eV)
    -0.3267609E+00 (   0.000eV)
    -0.3271123E+00 (   0.000eV)
    -0.3272169E+00 (   0.000eV)
    -0.3273980E+00 (   0.000eV)
    -0.3274619E+00 (   0.000eV)
    -0.3276718E+00 (   0.000eV)
    -0.3277794E+00 (   0.000eV)
    -0.3278578E+00 (   0.000eV)
    -0.3281380E+00 (   0.000eV)
    -0.3282414E+00 (   0.000eV)
    -0.3284416E+00 (   0.000eV)
    -0.3286388E+00 (   0.000eV)
    -0.3289159E+00 (   0.000eV)
    -0.3291431E+00 (   0.000eV)
    -0.3293630E+00 (   0.000eV)
    -0.3295196E+00 (   0.000eV)
    -0.3296400E+00 (   0.000eV)
    -0.3297608E+00 (   0.000eV)
    -0.3299803E+00 (   0.000eV)
    -0.3302174E+00 (   0.000eV)
    -0.3303759E+00 (   0.000eV)
    -0.3304635E+00 (   0.000eV)
    -0.3306429E+00 (   0.000eV)
    -0.3309090E+00 (   0.000eV)
    -0.3312285E+00 (   0.000eV)
    -0.3314374E+00 (   0.000eV)
    -0.3315070E+00 (   0.000eV)
    -0.3316827E+00 (   0.000eV)
    -0.3318707E+00 (   0.000eV)
    -0.3320362E+00 (   0.000eV)
    -0.3330361E+00 (   0.000eV)
    -0.3332891E+00 (   0.000eV)
    -0.3333288E+00 (   0.000eV)
    -0.3335095E+00 (   0.000eV)
    -0.3337272E+00 (   0.000eV)
    -0.3341989E+00 (   0.000eV)
    -0.3343565E+00 (   0.000eV)
    -0.3344946E+00 (   0.000eV)
    -0.3349810E+00 (   0.000eV)
    -0.3350328E+00 (   0.000eV)
    -0.3352376E+00 (   0.000eV)
    -0.3352756E+00 (   0.000eV)
    -0.3356670E+00 (   0.000eV)
    -0.3360515E+00 (   0.000eV)
    -0.3363409E+00 (   0.000eV)
    -0.3365907E+00 (   0.000eV)
    -0.3368060E+00 (   0.000eV)
    -0.3369453E+00 (   0.000eV)
    -0.3370009E+00 (   0.000eV)
    -0.3371827E+00 (   0.000eV)
    -0.3374600E+00 (   0.000eV)
    -0.3376599E+00 (   0.000eV)
    -0.3378824E+00 (   0.000eV)
    -0.3382278E+00 (   0.000eV)
    -0.3383033E+00 (   0.000eV)
    -0.3384673E+00 (   0.000eV)
    -0.3385242E+00 (   0.000eV)
    -0.3386066E+00 (   0.000eV)
    -0.3389046E+00 (   0.000eV)
    -0.3389861E+00 (   0.000eV)
    -0.3392360E+00 (   0.000eV)
    -0.3396758E+00 (   0.000eV)
    -0.3397491E+00 (   0.000eV)
    -0.3399744E+00 (   0.000eV)
    -0.3403520E+00 (   0.000eV)
    -0.3405675E+00 (   0.000eV)
    -0.3406221E+00 (   0.000eV)
    -0.3408306E+00 (   0.000eV)
    -0.3410747E+00 (   0.000eV)
    -0.3412177E+00 (   0.000eV)
    -0.3414829E+00 (   0.000eV)
    -0.3418380E+00 (   0.000eV)
    -0.3419345E+00 (   0.000eV)
    -0.3420746E+00 (   0.000eV)
    -0.3423611E+00 (   0.000eV)
    -0.3425053E+00 (   0.000eV)
    -0.3426594E+00 (   0.000eV)
    -0.3429456E+00 (   0.000eV)
    -0.3431011E+00 (   0.000eV)
    -0.3435605E+00 (   0.000eV)
    -0.3438178E+00 (   0.000eV)
    -0.3440665E+00 (   0.000eV)
    -0.3442841E+00 (   0.000eV)
    -0.3444914E+00 (   0.000eV)
    -0.3446499E+00 (   0.000eV)
    -0.3452022E+00 (   0.000eV)
    -0.3453358E+00 (   0.000eV)
    -0.3453930E+00 (   0.000eV)
    -0.3459336E+00 (   0.000eV)
    -0.3460266E+00 (   0.000eV)
    -0.3462619E+00 (   0.000eV)
    -0.3466671E+00 (   0.000eV)
    -0.3467626E+00 (   0.000eV)
    -0.3469837E+00 (   0.000eV)
    -0.3472166E+00 (   0.000eV)
    -0.3478069E+00 (   0.000eV)
    -0.3478990E+00 (   0.000eV)
    -0.3480637E+00 (   0.000eV)
    -0.3481449E+00 (   0.000eV)
    -0.3482038E+00 (   0.000eV)
    -0.3483446E+00 (   0.000eV)
    -0.3487113E+00 (   0.000eV)
    -0.3490861E+00 (   0.000eV)
    -0.3492866E+00 (   0.000eV)
    -0.3494486E+00 (   0.000eV)
    -0.3502762E+00 (   0.000eV)
    -0.3506215E+00 (   0.000eV)
    -0.3507854E+00 (   0.000eV)
    -0.3508717E+00 (   0.000eV)
    -0.3513049E+00 (   0.000eV)
    -0.3516410E+00 (   0.000eV)
    -0.3521255E+00 (   0.000eV)
    -0.3523131E+00 (   0.000eV)
    -0.3525457E+00 (   0.000eV)
    -0.3527314E+00 (   0.000eV)
    -0.3531140E+00 (   0.000eV)
    -0.3533769E+00 (   0.000eV)
    -0.3534205E+00 (   0.000eV)
    -0.3535608E+00 (   0.000eV)
    -0.3543446E+00 (   0.000eV)
    -0.3550731E+00 (   0.000eV)
    -0.3551969E+00 (   0.000eV)
    -0.3553789E+00 (   0.000eV)
    -0.3558687E+00 (   0.000eV)
    -0.3563152E+00 (   0.000eV)
    -0.3567308E+00 (   0.000eV)
    -0.3568462E+00 (   0.000eV)
    -0.3569749E+00 (   0.000eV)
    -0.3579687E+00 (   0.000eV)
    -0.3580893E+00 (   0.000eV)
    -0.3583441E+00 (   0.000eV)
    -0.3585526E+00 (   0.000eV)
    -0.3595233E+00 (   0.000eV)
    -0.3596181E+00 (   0.000eV)
    -0.3600686E+00 (   0.000eV)
    -0.3606663E+00 (   0.000eV)
    -0.3610769E+00 (   0.000eV)
    -0.3627184E+00 (   0.000eV)
    -0.3636448E+00 (   0.000eV)
    -0.3644335E+00 (   0.000eV)
    -0.3657828E+00 (   0.000eV)
    -0.3663676E+00 (   0.000eV)
    -0.3664915E+00 (   0.000eV)
    -0.3677461E+00 (   0.000eV)
    -0.3701312E+00 (   0.000eV)
    -0.3715840E+00 (   0.000eV)
    -0.3720179E+00 (   0.000eV)
    -0.3731404E+00 (   0.000eV)
    -0.3733409E+00 (   0.000eV)
    -0.3734940E+00 (   0.000eV)
    -0.3740942E+00 (   0.000eV)
    -0.3755563E+00 (   0.000eV)
    -0.3765711E+00 (   0.000eV)
    -0.3773493E+00 (   0.000eV)
    -0.3813012E+00 (   0.000eV)
    -0.3838212E+00 (   0.000eV)
    -0.3860687E+00 (   0.000eV)
    -0.3970037E+00 (   0.000eV)
    -0.7111764E+00 (   0.000eV)
    -0.7227650E+00 (   0.000eV)
    -0.7235820E+00 (   0.000eV)
    -0.7258311E+00 (   0.000eV)
    -0.7287350E+00 (   0.000eV)
    -0.7307731E+00 (   0.000eV)
    -0.7314260E+00 (   0.000eV)
    -0.7315495E+00 (   0.000eV)
    -0.7324823E+00 (   0.000eV)
    -0.7335111E+00 (   0.000eV)
    -0.7335380E+00 (   0.000eV)
    -0.7338080E+00 (   0.000eV)
    -0.7348113E+00 (   0.000eV)
    -0.7349029E+00 (   0.000eV)
    -0.7349687E+00 (   0.000eV)
    -0.7360101E+00 (   0.000eV)
    -0.7365758E+00 (   0.000eV)
    -0.7389657E+00 (   0.000eV)
    -0.7393962E+00 (   0.000eV)
    -0.7395247E+00 (   0.000eV)
    -0.7400789E+00 (   0.000eV)
    -0.7403363E+00 (   0.000eV)
    -0.7405875E+00 (   0.000eV)
    -0.7410047E+00 (   0.000eV)
    -0.7413002E+00 (   0.000eV)
    -0.7414086E+00 (   0.000eV)
    -0.7415825E+00 (   0.000eV)
    -0.7419883E+00 (   0.000eV)
    -0.7422428E+00 (   0.000eV)
    -0.7424769E+00 (   0.000eV)
    -0.7426580E+00 (   0.000eV)
    -0.7428817E+00 (   0.000eV)
    -0.7437636E+00 (   0.000eV)
    -0.7439009E+00 (   0.000eV)
    -0.7444090E+00 (   0.000eV)
    -0.7446749E+00 (   0.000eV)
    -0.7449005E+00 (   0.000eV)
    -0.7449820E+00 (   0.000eV)
    -0.7450919E+00 (   0.000eV)
    -0.7454572E+00 (   0.000eV)
    -0.7456160E+00 (   0.000eV)
    -0.7459979E+00 (   0.000eV)
    -0.7460531E+00 (   0.000eV)
    -0.7461302E+00 (   0.000eV)
    -0.7463341E+00 (   0.000eV)
    -0.7465189E+00 (   0.000eV)
    -0.7471359E+00 (   0.000eV)
    -0.7473451E+00 (   0.000eV)
    -0.7477748E+00 (   0.000eV)
    -0.7478664E+00 (   0.000eV)
    -0.7479302E+00 (   0.000eV)
    -0.7483343E+00 (   0.000eV)
    -0.7485842E+00 (   0.000eV)
    -0.7486069E+00 (   0.000eV)
    -0.7487929E+00 (   0.000eV)
    -0.7489684E+00 (   0.000eV)
    -0.7491817E+00 (   0.000eV)
    -0.7494501E+00 (   0.000eV)
    -0.7495074E+00 (   0.000eV)
    -0.7501332E+00 (   0.000eV)
    -0.7502716E+00 (   0.000eV)
    -0.7506351E+00 (   0.000eV)
    -0.7508846E+00 (   0.000eV)
    -0.7511111E+00 (   0.000eV)
    -0.7513089E+00 (   0.000eV)
    -0.7518455E+00 (   0.000eV)
    -0.7521618E+00 (   0.000eV)
    -0.7522120E+00 (   0.000eV)
    -0.7524163E+00 (   0.000eV)
    -0.7527869E+00 (   0.000eV)
    -0.7530874E+00 (   0.000eV)
    -0.7534282E+00 (   0.000eV)
    -0.7535067E+00 (   0.000eV)
    -0.7536180E+00 (   0.000eV)
    -0.7537167E+00 (   0.000eV)
    -0.7541430E+00 (   0.000eV)
    -0.7542098E+00 (   0.000eV)
    -0.7542695E+00 (   0.000eV)
    -0.7545269E+00 (   0.000eV)
    -0.7547952E+00 (   0.000eV)
    -0.7548970E+00 (   0.000eV)
    -0.7549738E+00 (   0.000eV)
    -0.7550567E+00 (   0.000eV)
    -0.7551368E+00 (   0.000eV)
    -0.7555917E+00 (   0.000eV)
    -0.7559994E+00 (   0.000eV)
    -0.7560774E+00 (   0.000eV)
    -0.7561949E+00 (   0.000eV)
    -0.7564328E+00 (   0.000eV)
    -0.7565089E+00 (   0.000eV)
    -0.7569905E+00 (   0.000eV)
    -0.7573583E+00 (   0.000eV)
    -0.7574258E+00 (   0.000eV)
    -0.7576468E+00 (   0.000eV)
    -0.7578055E+00 (   0.000eV)
    -0.7581363E+00 (   0.000eV)
    -0.7584531E+00 (   0.000eV)
    -0.7586732E+00 (   0.000eV)
    -0.7590089E+00 (   0.000eV)
    -0.7591635E+00 (   0.000eV)
    -0.7592708E+00 (   0.000eV)
    -0.7594268E+00 (   0.000eV)
    -0.7595335E+00 (   0.000eV)
    -0.7598167E+00 (   0.000eV)
    -0.7600990E+00 (   0.000eV)
    -0.7601589E+00 (   0.000eV)
    -0.7603552E+00 (   0.000eV)
    -0.7604656E+00 (   0.000eV)
    -0.7607131E+00 (   0.000eV)
    -0.7607766E+00 (   0.000eV)
    -0.7608874E+00 (   0.000eV)
    -0.7609117E+00 (   0.000eV)
    -0.7611348E+00 (   0.000eV)
    -0.7612720E+00 (   0.000eV)
    -0.7613008E+00 (   0.000eV)
    -0.7614578E+00 (   0.000eV)
    -0.7615148E+00 (   0.000eV)
    -0.7616118E+00 (   0.000eV)
    -0.7616605E+00 (   0.000eV)
    -0.7618210E+00 (   0.000eV)
    -0.7620867E+00 (   0.000eV)
    -0.7621332E+00 (   0.000eV)
    -0.7621993E+00 (   0.000eV)
    -0.7625107E+00 (   0.000eV)
    -0.7625256E+00 (   0.000eV)
    -0.7628682E+00 (   0.000eV)
    -0.7631920E+00 (   0.000eV)
    -0.7632544E+00 (   0.000eV)
    -0.7635331E+00 (   0.000eV)
    -0.7637124E+00 (   0.000eV)
    -0.7637434E+00 (   0.000eV)
    -0.7637914E+00 (   0.000eV)
    -0.7642423E+00 (   0.000eV)
    -0.7642996E+00 (   0.000eV)
    -0.7646625E+00 (   0.000eV)
    -0.7649591E+00 (   0.000eV)
    -0.7652416E+00 (   0.000eV)
    -0.7653753E+00 (   0.000eV)
    -0.7654919E+00 (   0.000eV)
    -0.7657502E+00 (   0.000eV)
    -0.7663204E+00 (   0.000eV)
    -0.7665754E+00 (   0.000eV)
    -0.7667823E+00 (   0.000eV)
    -0.7668147E+00 (   0.000eV)
    -0.7669835E+00 (   0.000eV)
    -0.7671009E+00 (   0.000eV)
    -0.7675703E+00 (   0.000eV)
    -0.7676147E+00 (   0.000eV)
    -0.7677922E+00 (   0.000eV)
    -0.7678705E+00 (   0.000eV)
    -0.7682344E+00 (   0.000eV)
    -0.7682779E+00 (   0.000eV)
    -0.7686523E+00 (   0.000eV)
    -0.7687350E+00 (   0.000eV)
    -0.7688225E+00 (   0.000eV)
    -0.7688617E+00 (   0.000eV)
    -0.7689897E+00 (   0.000eV)
    -0.7690626E+00 (   0.000eV)
    -0.7693791E+00 (   0.000eV)
    -0.7694340E+00 (   0.000eV)
    -0.7696669E+00 (   0.000eV)
    -0.7697556E+00 (   0.000eV)
    -0.7699922E+00 (   0.000eV)
    -0.7700452E+00 (   0.000eV)
    -0.7701177E+00 (   0.000eV)
    -0.7704122E+00 (   0.000eV)
    -0.7708517E+00 (   0.000eV)
    -0.7711204E+00 (   0.000eV)
    -0.7712928E+00 (   0.000eV)
    -0.7713757E+00 (   0.000eV)
    -0.7714801E+00 (   0.000eV)
    -0.7716981E+00 (   0.000eV)
    -0.7718201E+00 (   0.000eV)
    -0.7720018E+00 (   0.000eV)
    -0.7722516E+00 (   0.000eV)
    -0.7723178E+00 (   0.000eV)
    -0.7726263E+00 (   0.000eV)
    -0.7728216E+00 (   0.000eV)
    -0.7730368E+00 (   0.000eV)
    -0.7731705E+00 (   0.000eV)
    -0.7734489E+00 (   0.000eV)
    -0.7736430E+00 (   0.000eV)
    -0.7743232E+00 (   0.000eV)
    -0.7744346E+00 (   0.000eV)
    -0.7748340E+00 (   0.000eV)
    -0.7751927E+00 (   0.000eV)
    -0.7754642E+00 (   0.000eV)
    -0.7757559E+00 (   0.000eV)
    -0.7761078E+00 (   0.000eV)
    -0.7764557E+00 (   0.000eV)
    -0.7765234E+00 (   0.000eV)
    -0.7767580E+00 (   0.000eV)
    -0.7770426E+00 (   0.000eV)
    -0.7772636E+00 (   0.000eV)
    -0.7775576E+00 (   0.000eV)
    -0.7777226E+00 (   0.000eV)
    -0.7778166E+00 (   0.000eV)
    -0.7779714E+00 (   0.000eV)
    -0.7781013E+00 (   0.000eV)
    -0.7783812E+00 (   0.000eV)
    -0.7787404E+00 (   0.000eV)
    -0.7792563E+00 (   0.000eV)
    -0.7794917E+00 (   0.000eV)
    -0.7796041E+00 (   0.000eV)
    -0.7797737E+00 (   0.000eV)
    -0.7799068E+00 (   0.000eV)
    -0.7801206E+00 (   0.000eV)
    -0.7801876E+00 (   0.000eV)
    -0.7803120E+00 (   0.000eV)
    -0.7807807E+00 (   0.000eV)
    -0.7811938E+00 (   0.000eV)
    -0.7812766E+00 (   0.000eV)
    -0.7813195E+00 (   0.000eV)
    -0.7817669E+00 (   0.000eV)
    -0.7826511E+00 (   0.000eV)
    -0.7827185E+00 (   0.000eV)
    -0.7830757E+00 (   0.000eV)
    -0.7831334E+00 (   0.000eV)
    -0.7836440E+00 (   0.000eV)
    -0.7844930E+00 (   0.000eV)
    -0.7847556E+00 (   0.000eV)
    -0.7849134E+00 (   0.000eV)
    -0.7860175E+00 (   0.000eV)
    -0.7865692E+00 (   0.000eV)
    -0.7866231E+00 (   0.000eV)
    -0.7867249E+00 (   0.000eV)
    -0.7869975E+00 (   0.000eV)
    -0.7882042E+00 (   0.000eV)
    -0.7882650E+00 (   0.000eV)
    -0.7885407E+00 (   0.000eV)
    -0.7886269E+00 (   0.000eV)
    -0.7889263E+00 (   0.000eV)
    -0.7890435E+00 (   0.000eV)
    -0.7893761E+00 (   0.000eV)
    -0.7901553E+00 (   0.000eV)
    -0.7913970E+00 (   0.000eV)
    -0.7916054E+00 (   0.000eV)
    -0.7918446E+00 (   0.000eV)
    -0.7928350E+00 (   0.000eV)
    -0.7932592E+00 (   0.000eV)
    -0.7933213E+00 (   0.000eV)
    -0.7935223E+00 (   0.000eV)
    -0.7936628E+00 (   0.000eV)
    -0.7958703E+00 (   0.000eV)
    -0.7965875E+00 (   0.000eV)
    -0.7971345E+00 (   0.000eV)
    -0.7987927E+00 (   0.000eV)
    -0.8014069E+00 (   0.000eV)
    -0.8018866E+00 (   0.000eV)
    -0.8051992E+00 (   0.000eV)
    -0.8054801E+00 (   0.000eV)
    -0.8070059E+00 (   0.000eV)
    -0.8098151E+00 (   0.000eV)
    -0.8104388E+00 (   0.000eV)
    -0.8193716E+00 (   0.000eV)
    -0.8233972E+00 (   0.000eV)

 Total PSPW energy   :  -0.4405098401E+04


=== Spin Contamination ===
 
 <Sexact^2> =   0.000000000000000E+000
 <S^2>      =   0.000000000000000E+000
 


== Center of Charge ==

spin up     (    0.0113,    0.2995,   -0.2123 )
spin down   (    0.0113,    0.2995,   -0.2123 )
     total  (    0.0113,    0.2995,   -0.2123 )
ionic       (   -0.0239,    0.4313,   -0.2818 )


== Molecular Dipole wrt Center of Mass ==

mu   =  (  -72.5338,  270.9422, -142.8159 ) au
|mu| =   314.7495 au,     799.9673 Debye

 output psi filename:./perm_water256/ttt.elc
 
 Writing Crystallographic Information File:./perm_water256/water256.cif
   - cell not shifted (nwpw:cif_shift_cell .false.)
 
 -----------------
 cputime in seconds
 prologue    :    502.291895866394     
 main loop   :    51.4354219436646     
 epilogue    :    706.514239072800     
 total       :    1260.24155688286     
 cputime/step:    12.8588554859161     
 


Time spent doing                        total          step       percent
  total time                 :   0.126048E+04  0.315121E+03       100.0 %
  i/o time                   :   0.105265E+04  0.263162E+03        83.5 %
  FFTs                       :   0.190477E+01  0.476191E+00         0.2 %
  dot products               :   0.872433E+01  0.218108E+01         0.7 %
  geodesic                   :   0.498530E+01  0.124632E+01         0.4 %
  ffm_dgemm                  :   0.274684E+01  0.686709E+00         0.2 %
  fmf_dgemm                  :   0.391764E+00  0.979409E-01         0.0 %
  mmm_dgemm                  :   0.183159E+01  0.457897E+00         0.1 %
  exchange correlation       :   0.203976E+01  0.509939E+00         0.2 %
  local pseudopotentials     :   0.330997E+00  0.827492E-01         0.0 %
  non-local pseudopotentials :   0.166074E+02  0.415184E+01         1.3 %
  hartree potentials         :   0.976245E-01  0.244061E-01         0.0 %
  ion-ion interaction        :   0.328477E+01  0.821191E+00         0.3 %
  structure factors          :   0.186969E+01  0.467423E+00         0.1 %
  phase factors              :   0.401304E-01  0.100326E-01         0.0 %
  masking and packing        :   0.179915E+02  0.449787E+01         1.4 %
  queue fft                  :   0.204314E+02  0.510785E+01         1.6 %
  queue fft (serial)         :   0.470905E+01  0.117726E+01         0.4 %
  queue fft (message passing):   0.140328E+02  0.350819E+01         1.1 %
  MATHIAS InnerLoop          :   0.514158E+02  0.128540E+02         4.1 %
  MATHIAS Phaze              :   0.348091E-02  0.870228E-03         0.0 %
  MATHIAS Pipelined FFTs     :   0.118292E+02  0.295729E+01         0.9 %
  MATHIAS Lagrange           :   0.433760E+01  0.108440E+01         0.3 %
  MATHIAS Exch Corr          :   0.204625E+01  0.511561E+00         0.2 %
  MATHIAS Hpsi               :   0.265801E+02  0.664502E+01         2.1 %
  non-local psp FFM          :   0.723917E+01  0.180979E+01         0.6 %
  non-local psp FMF          :   0.890941E+01  0.222735E+01         0.7 %
  non-local psp FFM A        :   0.667941E-01  0.166985E-01         0.0 %
  non-local psp FFM B        :   0.609133E+01  0.152283E+01         0.5 %
     >>>  JOB COMPLETED     AT Sat Apr 22 07:11:02 2017  <<<

 Task  times  cpu:     4468.0s     wall:     1262.8s
 
 
                                NWChem Input Module
                                -------------------
 
 
 Summary of allocated global arrays
-----------------------------------
  No active global arrays



                         GA Statistics for process    0
                         ------------------------------

       create   destroy   get      put      acc     scatter   gather  read&inc
calls:    0        0        0        0        0        0        0        0     
number of processes/call 0.00e+00 0.00e+00 0.00e+00 0.00e+00 0.00e+00
bytes total:             0.00e+00 0.00e+00 0.00e+00 0.00e+00 0.00e+00 0.00e+00
bytes remote:            0.00e+00 0.00e+00 0.00e+00 0.00e+00 0.00e+00 0.00e+00
Max memory consumed for GA by this process: 0 bytes
 
 
 
                                     CITATION
                                     --------
                Please cite the following reference when publishing
                           results obtained with NWChem:
 
                 M. Valiev, E.J. Bylaska, N. Govind, K. Kowalski,
              T.P. Straatsma, H.J.J. van Dam, D. Wang, J. Nieplocha,
                        E. Apra, T.L. Windus, W.A. de Jong
                 "NWChem: a comprehensive and scalable open-source
                  solution for large scale molecular simulations"
                      Comput. Phys. Commun. 181, 1477 (2010)
                           doi:10.1016/j.cpc.2010.04.018
 
                                      AUTHORS
                                      -------
          E. Apra, E. J. Bylaska, W. A. de Jong, N. Govind, K. Kowalski,
       T. P. Straatsma, M. Valiev, H. J. J. van Dam, D. Wang, T. L. Windus,
        J. Hammond, J. Autschbach, K. Bhaskaran-Nair, J. Brabec, K. Lopata,
       S. A. Fischer, S. Krishnamoorthy, W. Ma, M. Klemm, O. Villa, Y. Chen,
    V. Anisimov, F. Aquino, S. Hirata, M. T. Hackler, V. Konjkov, T. Risthaus,
       M. Malagoli, A. Marenich, A. Otero-de-la-Roza, J. Mullin, P. Nichols,
      R. Peverati, J. Pittner, Y. Zhao, P.-D. Fan, A. Fonari, M. Williamson,
      R. J. Harrison, J. R. Rehr, M. Dupuis, D. Silverstein, D. M. A. Smith,
            J. Nieplocha, V. Tipparaju, M. Krishnan, B. E. Van Kuiken,
        A. Vazquez-Mayagoitia, L. Jensen, M. Swart, Q. Wu, T. Van Voorhis,
     A. A. Auer, M. Nooijen, L. D. Crosby, E. Brown, G. Cisneros, G. I. Fann,
   H. Fruchtl, J. Garza, K. Hirao, R. A. Kendall, J. A. Nichols, K. Tsemekhman,
    K. Wolinski, J. Anchell, D. E. Bernholdt, P. Borowski, T. Clark, D. Clerc,
   H. Dachsel, M. J. O. Deegan, K. Dyall, D. Elwood, E. Glendening, M. Gutowski,
   A. C. Hess, J. Jaffe, B. G. Johnson, J. Ju, R. Kobayashi, R. Kutteh, Z. Lin,
   R. Littlefield, X. Long, B. Meng, T. Nakajima, S. Niu, L. Pollack, M. Rosing,
   K. Glaesemann, G. Sandrone, M. Stave, H. Taylor, G. Thomas, J. H. van Lenthe,
                               A. T. Wong, Z. Zhang.

 Total times  cpu:     4471.8s     wall:     1282.8s
MA_summarize_allocated_blocks: starting scan ...
MA_summarize_allocated_blocks: scan completed: 0 heap blocks, 0 stack blocks
MA usage statistics:

	allocation statistics:
					      heap	     stack
					      ----	     -----
	current number of blocks	         0	         0
	maximum number of blocks	       262	        26
	current total bytes		         0	         0
	maximum total bytes		6015328808	 130379656
	maximum total K-bytes		   6015329	    130380
	maximum total M-bytes		      6016	       131
